 Entering Link 1 = C:\G09W\l1.exe PID=     62040.
  
 Copyright (c) 1988,1990,1992,1993,1995,1998,2003,2009,2013,
            Gaussian, Inc.  All Rights Reserved.
  
 This is part of the Gaussian(R) 09 program.  It is based on
 the Gaussian(R) 03 system (copyright 2003, Gaussian, Inc.),
 the Gaussian(R) 98 system (copyright 1998, Gaussian, Inc.),
 the Gaussian(R) 94 system (copyright 1995, Gaussian, Inc.),
 the Gaussian 92(TM) system (copyright 1992, Gaussian, Inc.),
 the Gaussian 90(TM) system (copyright 1990, Gaussian, Inc.),
 the Gaussian 88(TM) system (copyright 1988, Gaussian, Inc.),
 the Gaussian 86(TM) system (copyright 1986, Carnegie Mellon
 University), and the Gaussian 82(TM) system (copyright 1983,
 Carnegie Mellon University). Gaussian is a federally registered
 trademark of Gaussian, Inc.
  
 This software contains proprietary and confidential information,
 including trade secrets, belonging to Gaussian, Inc.
  
 This software is provided under written license and may be
 used, copied, transmitted, or stored only in accord with that
 written license.
  
 The following legend is applicable only to US Government
 contracts under FAR:
  
                    RESTRICTED RIGHTS LEGEND
  
 Use, reproduction and disclosure by the US Government is
 subject to restrictions as set forth in subparagraphs (a)
 and (c) of the Commercial Computer Software - Restricted
 Rights clause in FAR 52.227-19.
  
 Gaussian, Inc.
 340 Quinnipiac St., Bldg. 40, Wallingford CT 06492
  
  
 ---------------------------------------------------------------
 Warning -- This program may not be used in any manner that
 competes with the business of Gaussian, Inc. or will provide
 assistance to any competitor of Gaussian, Inc.  The licensee
 of this program is prohibited from giving any competitor of
 Gaussian, Inc. access to this program.  By using this program,
 the user acknowledges that Gaussian, Inc. is engaged in the
 business of creating and licensing software in the field of
 computational chemistry and represents and warrants to the
 licensee that it is not a competitor of Gaussian, Inc. and that
 it will not use this program in any manner prohibited above.
 ---------------------------------------------------------------
  

 Cite this work as:
 Gaussian 09, Revision D.01,
 M. J. Frisch, G. W. Trucks, H. B. Schlegel, G. E. Scuseria, 
 M. A. Robb, J. R. Cheeseman, G. Scalmani, V. Barone, B. Mennucci, 
 G. A. Petersson, H. Nakatsuji, M. Caricato, X. Li, H. P. Hratchian, 
 A. F. Izmaylov, J. Bloino, G. Zheng, J. L. Sonnenberg, M. Hada, 
 M. Ehara, K. Toyota, R. Fukuda, J. Hasegawa, M. Ishida, T. Nakajima, 
 Y. Honda, O. Kitao, H. Nakai, T. Vreven, J. A. Montgomery, Jr., 
 J. E. Peralta, F. Ogliaro, M. Bearpark, J. J. Heyd, E. Brothers, 
 K. N. Kudin, V. N. Staroverov, T. Keith, R. Kobayashi, J. Normand, 
 K. Raghavachari, A. Rendell, J. C. Burant, S. S. Iyengar, J. Tomasi, 
 M. Cossi, N. Rega, J. M. Millam, M. Klene, J. E. Knox, J. B. Cross, 
 V. Bakken, C. Adamo, J. Jaramillo, R. Gomperts, R. E. Stratmann, 
 O. Yazyev, A. J. Austin, R. Cammi, C. Pomelli, J. W. Ochterski, 
 R. L. Martin, K. Morokuma, V. G. Zakrzewski, G. A. Voth, 
 P. Salvador, J. J. Dannenberg, S. Dapprich, A. D. Daniels, 
 O. Farkas, J. B. Foresman, J. V. Ortiz, J. Cioslowski, 
 and D. J. Fox, Gaussian, Inc., Wallingford CT, 2013.
 
 ******************************************
 Gaussian 09:  IA32W-G09RevD.01 24-Apr-2013
                07-Feb-2024 
 ******************************************
 %nprocshared=8
 Will use up to    8 processors via shared memory.
 %chk=Preview_en520.chk
 ---------------------------------------------------------------
 #p opt=tight freq b3lyp/6-31g(d,p) guess=save geom=connectivity
 ---------------------------------------------------------------
 1/7=10,14=-1,18=20,19=15,26=3,38=1,57=2/1,3;
 2/9=110,12=2,17=6,18=5,40=1/2;
 3/5=1,6=6,7=101,11=2,16=1,25=1,30=1,71=1,74=-5/1,2,3;
 4//1;
 5/5=2,38=5/2;
 6/7=2,8=2,9=2,10=2,28=1/1;
 7//1,2,3,16;
 1/7=10,14=-1,18=20,19=15,26=3/3(2);
 2/9=110/2;
 99//99;
 2/9=110/2;
 3/5=1,6=6,7=101,11=2,16=1,25=1,30=1,71=1,74=-5/1,2,3;
 4/5=5,16=3,69=1/1;
 5/5=2,38=5/2;
 7//1,2,3,16;
 1/7=10,14=-1,18=20,19=15,26=3/3(-5);
 2/9=110/2;
 6/7=2,8=2,9=2,10=2,19=2,28=1/1;
 99/9=1/99;
 Leave Link    1 at Wed Feb 07 14:16:05 2024, MaxMem=           0 cpu:         0.0
 (Enter C:\G09W\l101.exe)
 --------------------------------
 MATrp OptFreq tight B3LYP/6-31Gd
 --------------------------------
 Symbolic Z-matrix:
 Charge =  0 Multiplicity = 1
 N                     1.89042   0.43519   0.00468 
 C                     1.02163   1.1257   -0.92808 
 H                    -0.01047   0.94295  -0.61466 
 C                     1.15871   0.59333  -2.34708 
 O                     0.38752   0.87674  -3.2381 
 C                     1.22616   2.67585  -0.91532 
 H                     0.50595   3.10649  -1.62006 
 H                     0.93551   3.00318   0.08767 
 C                     2.62099   3.13264  -1.22738 
 C                     3.60405   3.39748  -0.30491 
 H                     3.55806   3.35805   0.77521 
 C                     3.21325   3.36669  -2.52628 
 N                     4.77089   3.77098  -0.94457 
 H                     5.6168    4.06845  -0.48432 
 C                     4.56041   3.77075  -2.30847 
 C                     2.73744   3.29392  -3.84945 
 H                     1.71458   2.98988  -4.05129 
 C                     5.4281    4.0905   -3.35813 
 H                     6.45358   4.3982   -3.16935 
 C                     3.59684   3.61122  -4.89484 
 H                     3.2357    3.56193  -5.91861 
 C                     4.92926   4.00434  -4.65246 
 H                     5.57612   4.24821  -5.49082 
 O                     2.2506   -0.1814   -2.51697 
 H                     1.54001   0.28371   0.93777 
 C                     2.49281  -0.62806  -3.86491 
 H                     3.34451  -1.30536  -3.79883 
 H                     1.61467  -1.14448  -4.25859 
 H                     2.73066   0.22808  -4.50108 
 C                     3.09614  -0.0736   -0.39147 
 C                     3.89039  -0.78594   0.67763 
 C                     5.07278  -1.29611   0.31686 
 C                     3.34479  -0.8974    2.08133 
 O                     3.50041   0.05118  -1.54695 
 H                     5.70813  -1.82104   1.02491 
 H                     5.42274  -1.18803  -0.70435 
 H                     4.044    -1.43599   2.72729 
 H                     3.17194   0.08961   2.53058 
 H                     2.38899  -1.43882   2.10637 
 
 NAtoms=     39 NQM=       39 NQMF=       0 NMMI=      0 NMMIF=      0
                NMic=       0 NMicF=      0.
                    Isotopes and Nuclear Properties:
 (Nuclear quadrupole moments (NQMom) in fm**2, nuclear magnetic moments (NMagM)
  in nuclear magnetons)

  Atom         1           2           3           4           5           6           7           8           9          10
 IAtWgt=          14          12           1          12          16          12           1           1          12          12
 AtmWgt=  14.0030740  12.0000000   1.0078250  12.0000000  15.9949146  12.0000000   1.0078250   1.0078250  12.0000000  12.0000000
 NucSpn=           2           0           1           0           0           0           1           1           0           0
 AtZEff=   0.0000000   0.0000000   0.0000000   0.0000000   0.0000000   0.0000000   0.0000000   0.0000000   0.0000000   0.0000000
 NQMom=    2.0440000   0.0000000   0.0000000   0.0000000   0.0000000   0.0000000   0.0000000   0.0000000   0.0000000   0.0000000
 NMagM=    0.4037610   0.0000000   2.7928460   0.0000000   0.0000000   0.0000000   2.7928460   2.7928460   0.0000000   0.0000000
 AtZNuc=   7.0000000   6.0000000   1.0000000   6.0000000   8.0000000   6.0000000   1.0000000   1.0000000   6.0000000   6.0000000

  Atom        11          12          13          14          15          16          17          18          19          20
 IAtWgt=           1          12          14           1          12          12           1          12           1          12
 AtmWgt=   1.0078250  12.0000000  14.0030740   1.0078250  12.0000000  12.0000000   1.0078250  12.0000000   1.0078250  12.0000000
 NucSpn=           1           0           2           1           0           0           1           0           1           0
 AtZEff=   0.0000000   0.0000000   0.0000000   0.0000000   0.0000000   0.0000000   0.0000000   0.0000000   0.0000000   0.0000000
 NQMom=    0.0000000   0.0000000   2.0440000   0.0000000   0.0000000   0.0000000   0.0000000   0.0000000   0.0000000   0.0000000
 NMagM=    2.7928460   0.0000000   0.4037610   2.7928460   0.0000000   0.0000000   2.7928460   0.0000000   2.7928460   0.0000000
 AtZNuc=   1.0000000   6.0000000   7.0000000   1.0000000   6.0000000   6.0000000   1.0000000   6.0000000   1.0000000   6.0000000

  Atom        21          22          23          24          25          26          27          28          29          30
 IAtWgt=           1          12           1          16           1          12           1           1           1          12
 AtmWgt=   1.0078250  12.0000000   1.0078250  15.9949146   1.0078250  12.0000000   1.0078250   1.0078250   1.0078250  12.0000000
 NucSpn=           1           0           1           0           1           0           1           1           1           0
 AtZEff=   0.0000000   0.0000000   0.0000000   0.0000000   0.0000000   0.0000000   0.0000000   0.0000000   0.0000000   0.0000000
 NQMom=    0.0000000   0.0000000   0.0000000   0.0000000   0.0000000   0.0000000   0.0000000   0.0000000   0.0000000   0.0000000
 NMagM=    2.7928460   0.0000000   2.7928460   0.0000000   2.7928460   0.0000000   2.7928460   2.7928460   2.7928460   0.0000000
 AtZNuc=   1.0000000   6.0000000   1.0000000   8.0000000   1.0000000   6.0000000   1.0000000   1.0000000   1.0000000   6.0000000

  Atom        31          32          33          34          35          36          37          38          39
 IAtWgt=          12          12          12          16           1           1           1           1           1
 AtmWgt=  12.0000000  12.0000000  12.0000000  15.9949146   1.0078250   1.0078250   1.0078250   1.0078250   1.0078250
 NucSpn=           0           0           0           0           1           1           1           1           1
 AtZEff=   0.0000000   0.0000000   0.0000000   0.0000000   0.0000000   0.0000000   0.0000000   0.0000000   0.0000000
 NQMom=    0.0000000   0.0000000   0.0000000   0.0000000   0.0000000   0.0000000   0.0000000   0.0000000   0.0000000
 NMagM=    0.0000000   0.0000000   0.0000000   0.0000000   2.7928460   2.7928460   2.7928460   2.7928460   2.7928460
 AtZNuc=   6.0000000   6.0000000   6.0000000   8.0000000   1.0000000   1.0000000   1.0000000   1.0000000   1.0000000
 Leave Link  101 at Wed Feb 07 14:16:06 2024, MaxMem=    33554432 cpu:         0.0
 (Enter C:\G09W\l103.exe)

 GradGradGradGradGradGradGradGradGradGradGradGradGradGradGradGradGradGrad
 Berny optimization.
 Initialization pass.
                           ----------------------------
                           !    Initial Parameters    !
                           ! (Angstroms and Degrees)  !
 --------------------------                            --------------------------
 ! Name  Definition              Value          Derivative Info.                !
 --------------------------------------------------------------------------------
 ! R1    R(1,2)                  1.4497         estimate D2E/DX2                !
 ! R2    R(1,25)                 1.0082         estimate D2E/DX2                !
 ! R3    R(1,30)                 1.3673         estimate D2E/DX2                !
 ! R4    R(2,3)                  1.094          estimate D2E/DX2                !
 ! R5    R(2,4)                  1.5218         estimate D2E/DX2                !
 ! R6    R(2,6)                  1.5636         estimate D2E/DX2                !
 ! R7    R(4,5)                  1.212          estimate D2E/DX2                !
 ! R8    R(4,24)                 1.3496         estimate D2E/DX2                !
 ! R9    R(6,7)                  1.0958         estimate D2E/DX2                !
 ! R10   R(6,8)                  1.0944         estimate D2E/DX2                !
 ! R11   R(6,9)                  1.5005         estimate D2E/DX2                !
 ! R12   R(9,10)                 1.3739         estimate D2E/DX2                !
 ! R13   R(9,12)                 1.4466         estimate D2E/DX2                !
 ! R14   R(10,11)                1.0818         estimate D2E/DX2                !
 ! R15   R(10,13)                1.3821         estimate D2E/DX2                !
 ! R16   R(12,15)                1.4232         estimate D2E/DX2                !
 ! R17   R(12,16)                1.408          estimate D2E/DX2                !
 ! R18   R(13,14)                1.0079         estimate D2E/DX2                !
 ! R19   R(13,15)                1.38           estimate D2E/DX2                !
 ! R20   R(15,18)                1.3989         estimate D2E/DX2                !
 ! R21   R(16,17)                1.086          estimate D2E/DX2                !
 ! R22   R(16,20)                1.39           estimate D2E/DX2                !
 ! R23   R(18,19)                1.0872         estimate D2E/DX2                !
 ! R24   R(18,22)                1.3898         estimate D2E/DX2                !
 ! R25   R(20,21)                1.0867         estimate D2E/DX2                !
 ! R26   R(20,22)                1.4102         estimate D2E/DX2                !
 ! R27   R(22,23)                1.0866         estimate D2E/DX2                !
 ! R28   R(24,26)                1.4405         estimate D2E/DX2                !
 ! R29   R(26,27)                1.0902         estimate D2E/DX2                !
 ! R30   R(26,28)                1.0922         estimate D2E/DX2                !
 ! R31   R(26,29)                1.0928         estimate D2E/DX2                !
 ! R32   R(30,31)                1.5104         estimate D2E/DX2                !
 ! R33   R(30,34)                1.2305         estimate D2E/DX2                !
 ! R34   R(31,32)                1.3373         estimate D2E/DX2                !
 ! R35   R(31,33)                1.5101         estimate D2E/DX2                !
 ! R36   R(32,35)                1.0865         estimate D2E/DX2                !
 ! R37   R(32,36)                1.0849         estimate D2E/DX2                !
 ! R38   R(33,37)                1.0937         estimate D2E/DX2                !
 ! R39   R(33,38)                1.0981         estimate D2E/DX2                !
 ! R40   R(33,39)                1.0988         estimate D2E/DX2                !
 ! A1    A(2,1,25)             117.308          estimate D2E/DX2                !
 ! A2    A(2,1,30)             121.2844         estimate D2E/DX2                !
 ! A3    A(25,1,30)            121.2475         estimate D2E/DX2                !
 ! A4    A(1,2,3)              107.5463         estimate D2E/DX2                !
 ! A5    A(1,2,4)              112.2934         estimate D2E/DX2                !
 ! A6    A(1,2,6)              112.8654         estimate D2E/DX2                !
 ! A7    A(3,2,4)              107.0783         estimate D2E/DX2                !
 ! A8    A(3,2,6)              106.6588         estimate D2E/DX2                !
 ! A9    A(4,2,6)              110.0381         estimate D2E/DX2                !
 ! A10   A(2,4,5)              123.1202         estimate D2E/DX2                !
 ! A11   A(2,4,24)             113.0226         estimate D2E/DX2                !
 ! A12   A(5,4,24)             123.8134         estimate D2E/DX2                !
 ! A13   A(2,6,7)              107.3605         estimate D2E/DX2                !
 ! A14   A(2,6,8)              105.6208         estimate D2E/DX2                !
 ! A15   A(2,6,9)              114.9414         estimate D2E/DX2                !
 ! A16   A(7,6,8)              107.2966         estimate D2E/DX2                !
 ! A17   A(7,6,9)              110.9504         estimate D2E/DX2                !
 ! A18   A(8,6,9)              110.2691         estimate D2E/DX2                !
 ! A19   A(6,9,10)             125.7452         estimate D2E/DX2                !
 ! A20   A(6,9,12)             128.0651         estimate D2E/DX2                !
 ! A21   A(10,9,12)            106.1853         estimate D2E/DX2                !
 ! A22   A(9,10,11)            129.2678         estimate D2E/DX2                !
 ! A23   A(9,10,13)            110.2085         estimate D2E/DX2                !
 ! A24   A(11,10,13)           120.5198         estimate D2E/DX2                !
 ! A25   A(9,12,15)            107.2204         estimate D2E/DX2                !
 ! A26   A(9,12,16)            134.1927         estimate D2E/DX2                !
 ! A27   A(15,12,16)           118.5792         estimate D2E/DX2                !
 ! A28   A(10,13,14)           125.2381         estimate D2E/DX2                !
 ! A29   A(10,13,15)           109.1835         estimate D2E/DX2                !
 ! A30   A(14,13,15)           125.4048         estimate D2E/DX2                !
 ! A31   A(12,15,13)           107.1977         estimate D2E/DX2                !
 ! A32   A(12,15,18)           122.4915         estimate D2E/DX2                !
 ! A33   A(13,15,18)           130.3106         estimate D2E/DX2                !
 ! A34   A(12,16,17)           120.4915         estimate D2E/DX2                !
 ! A35   A(12,16,20)           119.0802         estimate D2E/DX2                !
 ! A36   A(17,16,20)           120.4278         estimate D2E/DX2                !
 ! A37   A(15,18,19)           121.2967         estimate D2E/DX2                !
 ! A38   A(15,18,22)           117.5164         estimate D2E/DX2                !
 ! A39   A(19,18,22)           121.1866         estimate D2E/DX2                !
 ! A40   A(16,20,21)           119.5178         estimate D2E/DX2                !
 ! A41   A(16,20,22)           121.2351         estimate D2E/DX2                !
 ! A42   A(21,20,22)           119.2461         estimate D2E/DX2                !
 ! A43   A(18,22,20)           121.0968         estimate D2E/DX2                !
 ! A44   A(18,22,23)           119.4026         estimate D2E/DX2                !
 ! A45   A(20,22,23)           119.5002         estimate D2E/DX2                !
 ! A46   A(4,24,26)            115.5837         estimate D2E/DX2                !
 ! A47   A(24,26,27)           105.5016         estimate D2E/DX2                !
 ! A48   A(24,26,28)           110.4092         estimate D2E/DX2                !
 ! A49   A(24,26,29)           109.7796         estimate D2E/DX2                !
 ! A50   A(27,26,28)           110.8694         estimate D2E/DX2                !
 ! A51   A(27,26,29)           110.6077         estimate D2E/DX2                !
 ! A52   A(28,26,29)           109.6091         estimate D2E/DX2                !
 ! A53   A(1,30,31)            115.7299         estimate D2E/DX2                !
 ! A54   A(1,30,34)            121.6036         estimate D2E/DX2                !
 ! A55   A(31,30,34)           122.6661         estimate D2E/DX2                !
 ! A56   A(30,31,32)           116.994          estimate D2E/DX2                !
 ! A57   A(30,31,33)           120.1837         estimate D2E/DX2                !
 ! A58   A(32,31,33)           122.8222         estimate D2E/DX2                !
 ! A59   A(31,32,35)           121.7021         estimate D2E/DX2                !
 ! A60   A(31,32,36)           120.0743         estimate D2E/DX2                !
 ! A61   A(35,32,36)           118.2232         estimate D2E/DX2                !
 ! A62   A(31,33,37)           110.7538         estimate D2E/DX2                !
 ! A63   A(31,33,38)           111.7655         estimate D2E/DX2                !
 ! A64   A(31,33,39)           111.8284         estimate D2E/DX2                !
 ! A65   A(37,33,38)           107.555          estimate D2E/DX2                !
 ! A66   A(37,33,39)           107.4571         estimate D2E/DX2                !
 ! A67   A(38,33,39)           107.256          estimate D2E/DX2                !
 ! D1    D(25,1,2,3)           -26.7617         estimate D2E/DX2                !
 ! D2    D(25,1,2,4)          -144.312          estimate D2E/DX2                !
 ! D3    D(25,1,2,6)            90.602          estimate D2E/DX2                !
 ! D4    D(30,1,2,3)           148.694          estimate D2E/DX2                !
 ! D5    D(30,1,2,4)            31.1437         estimate D2E/DX2                !
 ! D6    D(30,1,2,6)           -93.9422         estimate D2E/DX2                !
 ! D7    D(2,1,30,31)         -179.1405         estimate D2E/DX2                !
 ! D8    D(2,1,30,34)            1.112          estimate D2E/DX2                !
 ! D9    D(25,1,30,31)          -3.8639         estimate D2E/DX2                !
 ! D10   D(25,1,30,34)         176.3886         estimate D2E/DX2                !
 ! D11   D(1,2,4,5)            168.1583         estimate D2E/DX2                !
 ! D12   D(1,2,4,24)           -14.165          estimate D2E/DX2                !
 ! D13   D(3,2,4,5)             50.33           estimate D2E/DX2                !
 ! D14   D(3,2,4,24)          -131.9933         estimate D2E/DX2                !
 ! D15   D(6,2,4,5)            -65.2183         estimate D2E/DX2                !
 ! D16   D(6,2,4,24)           112.4584         estimate D2E/DX2                !
 ! D17   D(1,2,6,7)           -177.9941         estimate D2E/DX2                !
 ! D18   D(1,2,6,8)            -63.735          estimate D2E/DX2                !
 ! D19   D(1,2,6,9)             58.0506         estimate D2E/DX2                !
 ! D20   D(3,2,6,7)            -60.1085         estimate D2E/DX2                !
 ! D21   D(3,2,6,8)             54.1506         estimate D2E/DX2                !
 ! D22   D(3,2,6,9)            175.9362         estimate D2E/DX2                !
 ! D23   D(4,2,6,7)             55.7043         estimate D2E/DX2                !
 ! D24   D(4,2,6,8)            169.9634         estimate D2E/DX2                !
 ! D25   D(4,2,6,9)            -68.251          estimate D2E/DX2                !
 ! D26   D(2,4,24,26)         -175.2559         estimate D2E/DX2                !
 ! D27   D(5,4,24,26)            2.4021         estimate D2E/DX2                !
 ! D28   D(2,6,9,10)           -93.415          estimate D2E/DX2                !
 ! D29   D(2,6,9,12)            85.7122         estimate D2E/DX2                !
 ! D30   D(7,6,9,10)           144.5507         estimate D2E/DX2                !
 ! D31   D(7,6,9,12)           -36.3221         estimate D2E/DX2                !
 ! D32   D(8,6,9,10)            25.8148         estimate D2E/DX2                !
 ! D33   D(8,6,9,12)          -155.058          estimate D2E/DX2                !
 ! D34   D(6,9,10,11)           -1.8966         estimate D2E/DX2                !
 ! D35   D(6,9,10,13)          178.8406         estimate D2E/DX2                !
 ! D36   D(12,9,10,11)         178.8189         estimate D2E/DX2                !
 ! D37   D(12,9,10,13)          -0.4439         estimate D2E/DX2                !
 ! D38   D(6,9,12,15)         -179.2265         estimate D2E/DX2                !
 ! D39   D(6,9,12,16)            1.8333         estimate D2E/DX2                !
 ! D40   D(10,9,12,15)           0.0359         estimate D2E/DX2                !
 ! D41   D(10,9,12,16)        -178.9043         estimate D2E/DX2                !
 ! D42   D(9,10,13,14)         176.1204         estimate D2E/DX2                !
 ! D43   D(9,10,13,15)           0.7026         estimate D2E/DX2                !
 ! D44   D(11,10,13,14)         -3.2171         estimate D2E/DX2                !
 ! D45   D(11,10,13,15)       -178.6349         estimate D2E/DX2                !
 ! D46   D(9,12,15,13)           0.3785         estimate D2E/DX2                !
 ! D47   D(9,12,15,18)        -179.4726         estimate D2E/DX2                !
 ! D48   D(16,12,15,13)        179.5131         estimate D2E/DX2                !
 ! D49   D(16,12,15,18)         -0.3379         estimate D2E/DX2                !
 ! D50   D(9,12,16,17)          -1.1117         estimate D2E/DX2                !
 ! D51   D(9,12,16,20)         179.1598         estimate D2E/DX2                !
 ! D52   D(15,12,16,17)       -179.9589         estimate D2E/DX2                !
 ! D53   D(15,12,16,20)          0.3126         estimate D2E/DX2                !
 ! D54   D(10,13,15,12)         -0.6562         estimate D2E/DX2                !
 ! D55   D(10,13,15,18)        179.1791         estimate D2E/DX2                !
 ! D56   D(14,13,15,12)       -176.0646         estimate D2E/DX2                !
 ! D57   D(14,13,15,18)          3.7707         estimate D2E/DX2                !
 ! D58   D(12,15,18,19)        179.9252         estimate D2E/DX2                !
 ! D59   D(12,15,18,22)          0.1236         estimate D2E/DX2                !
 ! D60   D(13,15,18,19)          0.1117         estimate D2E/DX2                !
 ! D61   D(13,15,18,22)       -179.6898         estimate D2E/DX2                !
 ! D62   D(12,16,20,21)       -179.717          estimate D2E/DX2                !
 ! D63   D(12,16,20,22)         -0.0908         estimate D2E/DX2                !
 ! D64   D(17,16,20,21)          0.5544         estimate D2E/DX2                !
 ! D65   D(17,16,20,22)       -179.8195         estimate D2E/DX2                !
 ! D66   D(15,18,22,20)          0.1108         estimate D2E/DX2                !
 ! D67   D(15,18,22,23)        179.8487         estimate D2E/DX2                !
 ! D68   D(19,18,22,20)       -179.691          estimate D2E/DX2                !
 ! D69   D(19,18,22,23)          0.0469         estimate D2E/DX2                !
 ! D70   D(16,20,22,18)         -0.1288         estimate D2E/DX2                !
 ! D71   D(16,20,22,23)       -179.8665         estimate D2E/DX2                !
 ! D72   D(21,20,22,18)        179.4983         estimate D2E/DX2                !
 ! D73   D(21,20,22,23)         -0.2393         estimate D2E/DX2                !
 ! D74   D(4,24,26,27)        -174.8917         estimate D2E/DX2                !
 ! D75   D(4,24,26,28)         -55.0473         estimate D2E/DX2                !
 ! D76   D(4,24,26,29)          65.9058         estimate D2E/DX2                !
 ! D77   D(1,30,31,32)         179.8603         estimate D2E/DX2                !
 ! D78   D(1,30,31,33)          -0.2099         estimate D2E/DX2                !
 ! D79   D(34,30,31,32)         -0.3952         estimate D2E/DX2                !
 ! D80   D(34,30,31,33)        179.5346         estimate D2E/DX2                !
 ! D81   D(30,31,32,35)        179.8175         estimate D2E/DX2                !
 ! D82   D(30,31,32,36)          0.0704         estimate D2E/DX2                !
 ! D83   D(33,31,32,35)         -0.1103         estimate D2E/DX2                !
 ! D84   D(33,31,32,36)       -179.8574         estimate D2E/DX2                !
 ! D85   D(30,31,33,37)       -179.7323         estimate D2E/DX2                !
 ! D86   D(30,31,33,38)        -59.824          estimate D2E/DX2                !
 ! D87   D(30,31,33,39)         60.4416         estimate D2E/DX2                !
 ! D88   D(32,31,33,37)          0.1933         estimate D2E/DX2                !
 ! D89   D(32,31,33,38)        120.1016         estimate D2E/DX2                !
 ! D90   D(32,31,33,39)       -119.6328         estimate D2E/DX2                !
 --------------------------------------------------------------------------------
 Trust Radius=3.00D-01 FncErr=1.00D-07 GrdErr=1.00D-06
 Number of steps in this run=    207 maximum allowed number of steps=    234.
 GradGradGradGradGradGradGradGradGradGradGradGradGradGradGradGradGradGrad

 Leave Link  103 at Wed Feb 07 14:16:07 2024, MaxMem=    33554432 cpu:         0.0
 (Enter C:\G09W\l202.exe)
                          Input orientation:                          
 ---------------------------------------------------------------------
 Center     Atomic      Atomic             Coordinates (Angstroms)
 Number     Number       Type             X           Y           Z
 ---------------------------------------------------------------------
      1          7           0        1.890419    0.435187    0.004676
      2          6           0        1.021634    1.125700   -0.928079
      3          1           0       -0.010472    0.942947   -0.614659
      4          6           0        1.158708    0.593333   -2.347076
      5          8           0        0.387517    0.876741   -3.238101
      6          6           0        1.226163    2.675845   -0.915321
      7          1           0        0.505949    3.106490   -1.620056
      8          1           0        0.935514    3.003178    0.087668
      9          6           0        2.620992    3.132641   -1.227382
     10          6           0        3.604048    3.397481   -0.304909
     11          1           0        3.558056    3.358049    0.775214
     12          6           0        3.213254    3.366689   -2.526284
     13          7           0        4.770890    3.770982   -0.944570
     14          1           0        5.616797    4.068451   -0.484321
     15          6           0        4.560408    3.770751   -2.308468
     16          6           0        2.737440    3.293923   -3.849448
     17          1           0        1.714583    2.989880   -4.051287
     18          6           0        5.428099    4.090499   -3.358133
     19          1           0        6.453585    4.398203   -3.169349
     20          6           0        3.596845    3.611219   -4.894841
     21          1           0        3.235700    3.561931   -5.918610
     22          6           0        4.929256    4.004344   -4.652465
     23          1           0        5.576121    4.248208   -5.490822
     24          8           0        2.250604   -0.181400   -2.516970
     25          1           0        1.540008    0.283709    0.937770
     26          6           0        2.492806   -0.628058   -3.864914
     27          1           0        3.344511   -1.305356   -3.798826
     28          1           0        1.614670   -1.144483   -4.258594
     29          1           0        2.730655    0.228079   -4.501080
     30          6           0        3.096143   -0.073601   -0.391471
     31          6           0        3.890391   -0.785942    0.677635
     32          6           0        5.072782   -1.296112    0.316863
     33          6           0        3.344793   -0.897399    2.081333
     34          8           0        3.500411    0.051176   -1.546949
     35          1           0        5.708130   -1.821041    1.024912
     36          1           0        5.422741   -1.188030   -0.704346
     37          1           0        4.043996   -1.435994    2.727285
     38          1           0        3.171939    0.089607    2.530585
     39          1           0        2.388992   -1.438825    2.106369
 ---------------------------------------------------------------------
                    Distance matrix (angstroms):
                    1          2          3          4          5
     1  N    0.000000
     2  C    1.449699   0.000000
     3  H    2.062713   1.094017   0.000000
     4  C    2.468025   1.521761   2.119075   0.000000
     5  O    3.601290   2.408379   2.654285   1.212016   0.000000
     6  C    2.511609   1.563632   2.150023   2.528108   3.055391
     7  H    3.419411   2.160623   2.440990   2.696407   2.757513
     8  H    2.741042   2.136372   2.373333   3.432950   3.985320
     9  C    3.054172   2.583668   3.477757   3.136889   3.757724
    10  C    3.436212   3.495453   4.380118   4.244217   5.030290
    11  H    3.452226   3.783917   4.527566   4.811363   5.684708
    12  C    4.092598   3.518450   4.463323   3.456122   3.832925
    13  N    4.508405   4.588541   5.564895   5.011221   5.731569
    14  H    5.227391   5.474690   6.438317   5.951543   6.716821
    15  C    4.858546   4.628682   5.635461   4.655002   5.162609
    16  C    4.872790   4.022384   4.852007   3.470260   3.426172
    17  H    4.796687   3.702671   4.356164   2.992786   2.624449
    18  C    6.097948   5.840559   6.856514   5.610713   5.979140
    19  H    6.826596   6.725969   7.762040   6.571825   7.014456
    20  C    6.083119   5.342726   6.200997   4.641471   4.530114
    21  H    6.831663   5.978521   6.747489   5.087468   4.744209
    22  C    6.607751   6.117774   7.076507   5.582728   5.692954
    23  H    7.637017   7.163242   8.118604   6.538715   6.585070
    24  O    2.620804   2.396550   3.161552   1.349560   2.260705
    25  H    1.008166   2.111647   2.290987   3.321365   4.372393
    26  C    4.057965   3.723575   4.393018   2.361238   2.662621
    27  H    4.428375   4.421197   5.142927   3.238878   3.717495
    28  H    4.554873   4.074034   4.502967   2.623320   2.575394
    29  H    4.588107   4.061135   4.809271   2.691498   2.739740
    30  C    1.367321   2.455577   3.276315   2.832462   4.042661
    31  C    2.438015   3.802954   4.458230   4.302716   5.510683
    32  C    3.636247   4.881276   5.632104   5.097700   6.269830
    33  C    2.864174   4.306571   4.681138   5.158687   6.339514
    34  O    2.268717   2.771631   3.740417   2.533320   3.637535
    35  H    4.550425   5.870324   6.559744   6.156033   7.332137
    36  H    3.951562   4.977263   5.836858   4.904466   6.003055
    37  H    3.943579   5.390606   5.767726   6.179983   7.369153
    38  H    2.853408   4.202339   4.555051   5.300793   6.453707
    39  H    2.859652   4.201706   4.339846   5.047418   6.158824
                    6          7          8          9         10
     6  C    0.000000
     7  H    1.095817   0.000000
     8  H    1.094354   1.763950   0.000000
     9  C    1.500531   2.151345   2.141718   0.000000
    10  C    2.558846   3.378240   2.725924   1.373862   0.000000
    11  H    2.959904   3.887925   2.734297   2.222451   1.081820
    12  C    2.649717   2.866785   3.486113   1.446616   2.255699
    13  N    3.710158   4.368931   4.045386   2.260426   1.382097
    14  H    4.626314   5.323160   4.834914   3.225326   2.129214
    15  C    3.775827   4.165789   4.412539   2.310252   2.251268
    16  C    3.357839   3.159885   4.339626   2.629600   3.650409
    17  H    3.189272   2.717587   4.211659   2.969241   4.215633
    18  C    5.062098   5.311944   5.765339   3.652046   3.623481
    19  H    5.947528   6.280383   6.557694   4.479023   4.162490
    20  C    4.725636   4.531292   5.681355   3.825125   4.594912
    21  H    5.464091   5.112390   6.455884   4.750765   5.628176
    22  C    5.426238   5.437582   6.278628   4.221272   4.585379
    23  H    6.506125   6.480200   7.362396   5.306052   5.613065
    24  O    3.431998   3.828642   4.319160   3.575346   4.419663
    25  H    3.042163   3.947131   2.912662   3.738025   3.937015
    26  C    4.606545   4.788928   5.588733   4.595200   5.487573
    27  H    5.352753   5.680569   6.282641   5.179925   5.864426
    28  H    5.091495   5.124638   6.046019   5.338045   6.341821
    29  H    4.594858   4.640568   5.655114   4.377854   5.330645
    30  C    3.366110   4.281531   3.790048   3.347313   3.509113
    31  C    4.649687   5.646668   4.841156   4.538255   4.306787
    32  C    5.664909   6.632535   5.971048   5.292431   4.957176
    33  C    5.122167   6.147393   4.999383   5.264286   4.920097
    34  O    3.529879   4.278679   4.238513   3.220393   3.570877
    35  H    6.638864   7.638004   6.850502   6.256375   5.781744
    36  H    5.708354   6.592137   6.191019   5.176057   4.949152
    37  H    6.173814   7.214659   6.027976   6.207799   5.722782
    38  H    4.727466   5.782465   4.411161   4.866818   4.378216
    39  H    5.235770   6.171870   5.091085   5.662687   5.538996
                   11         12         13         14         15
    11  H    0.000000
    12  C    3.319466   0.000000
    13  N    2.144560   2.256436   0.000000
    14  H    2.515853   3.230960   1.007906   0.000000
    15  C    3.268659   1.423213   1.380044   2.128872   0.000000
    16  C    4.697341   1.407997   3.577823   4.496072   2.434172
    17  H    5.179677   2.171090   4.427508   5.395724   3.427229
    18  C    4.595443   2.474149   2.521765   2.880084   1.398900
    19  H    5.002558   3.460823   2.859110   2.831665   2.172309
    20  C    5.675837   2.411846   4.124143   4.872572   2.764640
    21  H    6.704682   3.398014   5.209758   5.954635   3.851179
    22  C    5.635387   2.805693   3.718605   4.224955   2.384310
    23  H    6.642904   3.892133   4.641610   5.009892   3.374465
    24  O    5.007556   3.676374   4.944251   5.790005   4.582377
    25  H    3.681101   4.929928   5.113011   5.741675   5.640952
    26  C    6.209234   4.274223   5.750620   6.576087   5.103629
    27  H    6.535655   4.844027   5.995877   6.710219   5.428300
    28  H    7.027714   5.089896   6.716121   7.578710   6.053090
    29  H    6.190362   3.739464   5.418808   6.261998   4.550392
    30  C    3.653866   4.050523   4.229837   4.849631   4.538502
    31  C    4.158441   5.288474   4.916542   5.281643   5.489006
    32  C    4.915862   5.769146   5.230468   5.451274   5.729572
    33  C    4.456486   6.279322   5.743137   6.033594   6.522247
    34  O    4.041185   3.469032   3.976674   4.663343   3.941922
    35  H    5.613212   6.763723   6.002333   6.080481   6.610358
    36  H    5.131568   5.380219   5.007436   5.264662   5.282645
    37  H    5.198997   7.166302   6.412760   6.564072   7.261934
    38  H    3.730030   6.026019   5.309037   5.558614   6.236594
    39  H    5.113578   6.725612   6.490282   6.889158   7.165579
                   16         17         18         19         20
    16  C    0.000000
    17  H    1.086010   0.000000
    18  C    2.848784   3.934721   0.000000
    19  H    3.935949   5.021884   1.087171   0.000000
    20  C    1.390000   2.154195   2.438171   3.428940   0.000000
    21  H    2.145116   2.475466   3.412043   4.314228   1.086718
    22  C    2.439999   3.424132   1.389807   2.162945   1.410183
    23  H    3.415096   4.308959   2.143629   2.486297   2.162980
    24  O    3.753715   3.563490   5.390098   6.250073   4.674462
    25  H    5.780371   5.678426   6.932798   7.611880   7.022980
    26  C    3.929633   3.705380   5.580103   6.436992   4.500124
    27  H    4.639447   4.601027   5.800931   6.526344   5.043573
    28  H    4.596462   4.140763   6.538969   7.437938   5.191390
    29  H    3.134337   2.976954   4.847764   5.746620   3.514394
    30  C    4.840092   4.968690   5.619505   6.243881   5.840286
    31  C    6.202344   6.430682   6.513958   6.945834   7.104483
    32  C    6.624227   6.980542   6.530500   6.818028   7.309046
    33  C    7.287676   7.441609   7.668577   8.079458   8.310125
    34  O    4.049572   4.254042   4.828302   5.500005   4.887902
    35  H    7.664675   8.053643   7.364496   7.538337   8.307253
    36  H    6.098394   6.512095   5.908086   6.192324   6.627740
    37  H    8.205645   8.423987   8.336077   8.637955   9.152656
    38  H    7.152709   7.338699   7.468225   7.862725   8.229171
    39  H    7.615253   7.614787   8.346878   8.855790   8.716582
                   21         22         23         24         25
    21  H    0.000000
    22  C    2.160321   0.000000
    23  H    2.476196   1.086621   0.000000
    24  O    5.153067   5.408879   6.286835   0.000000
    25  H    7.786659   7.522025   8.563542   3.557598   0.000000
    26  C    4.724994   5.292984   5.994029   1.440526   4.980453
    27  H    5.309972   5.606517   6.219727   2.025602   5.311940
    28  H    5.247259   6.136126   6.803867   2.089304   5.389574
    29  H    3.657735   4.372292   5.023714   2.082022   5.567928
    30  C    6.617086   6.176246   7.129636   2.290045   2.077525
    31  C    7.927362   7.241274   8.138440   3.641411   2.595404
    32  C    8.115206   7.267025   8.045001   4.151853   3.919420
    33  C    9.159509   8.478304   9.423037   4.780617   2.441311
    34  O    5.613100   5.226219   6.121910   1.599078   3.173496
    35  H    9.126982   8.171559   8.905504   5.214196   4.670204
    36  H    7.384702   6.541554   7.244761   3.789639   4.465218
    37  H   10.019186   9.210954  10.109146   5.682647   3.525578
    38  H    9.135097   8.367170   9.349707   5.138105   2.288653
    39  H    9.493406   9.042282  10.010866   4.793280   2.248004
                   26         27         28         29         30
    26  C    0.000000
    27  H    1.090184   0.000000
    28  H    1.092155   1.797113   0.000000
    29  H    1.092818   1.794827   1.785540   0.000000
    30  C    3.568787   3.631663   4.277405   4.136844   0.000000
    31  C    4.755304   4.539436   5.447368   5.402991   1.510380
    32  C    4.958813   4.463844   5.737276   5.569676   2.429686
    33  C    6.013009   5.894294   6.576401   6.706119   2.618249
    34  O    2.617171   2.633521   3.512640   3.057893   1.230500
    35  H    5.972597   5.396395   6.717855   6.603093   3.447051
    36  H    4.345949   3.729425   5.209221   4.864965   2.598634
    37  H    6.820266   6.564790   7.401967   7.532813   3.532871
    38  H    6.471373   6.483606   7.073967   7.046859   2.927592
    39  H    6.026968   5.983491   6.418642   6.823026   2.933105
                   31         32         33         34         35
    31  C    0.000000
    32  C    1.337340   0.000000
    33  C    1.510122   2.501654   0.000000
    34  O    2.408656   2.785916   3.753457   0.000000
    35  H    2.120426   1.086532   2.748545   3.872168   0.000000
    36  H    2.102295   1.084906   3.487455   2.437409   1.863460
    37  H    2.155743   2.624519   1.093720   4.558096   2.411571
    38  H    2.171677   3.230168   1.098129   4.090923   3.514241
    39  H    2.172956   3.228843   1.098783   4.099035   3.511740
                   36         37         38         39
    36  H    0.000000
    37  H    3.706550   0.000000
    38  H    4.142855   1.768229   0.000000
    39  H    4.143266   1.767649   1.768918   0.000000
 Stoichiometry    C16H18N2O3
 Framework group  C1[X(C16H18N2O3)]
 Deg. of freedom   111
 Full point group                 C1      NOp   1
 Largest Abelian subgroup         C1      NOp   1
 Largest concise Abelian subgroup C1      NOp   1
                         Standard orientation:                         
 ---------------------------------------------------------------------
 Center     Atomic      Atomic             Coordinates (Angstroms)
 Number     Number       Type             X           Y           Z
 ---------------------------------------------------------------------
      1          7           0       -2.138816    0.297973    0.933466
      2          6           0       -1.147032    1.206979    1.473558
      3          1           0       -1.652475    1.855850    2.194923
      4          6           0       -0.547673    2.108922    0.404436
      5          8           0        0.138425    3.074528    0.661063
      6          6           0       -0.008929    0.470948    2.253253
      7          1           0        0.664915    1.238607    2.650052
      8          1           0       -0.498163   -0.005953    3.108137
      9          6           0        0.749529   -0.547445    1.453748
     10          6           0        0.469593   -1.891132    1.393433
     11          1           0       -0.297228   -2.454587    1.908057
     12          6           0        1.890069   -0.333989    0.589858
     13          7           0        1.354195   -2.525341    0.541699
     14          1           0        1.389148   -3.518569    0.373914
     15          6           0        2.244398   -1.597887    0.039815
     16          6           0        2.658930    0.792384    0.239727
     17          1           0        2.416557    1.771656    0.641846
     18          6           0        3.321015   -1.759969   -0.838562
     19          1           0        3.575271   -2.735141   -1.246403
     20          6           0        3.729593    0.634885   -0.632612
     21          1           0        4.330624    1.498627   -0.904031
     22          6           0        4.057119   -0.628015   -1.167798
     23          1           0        4.901485   -0.719266   -1.845636
     24          8           0       -0.818526    1.692164   -0.850261
     25          1           0       -2.934402    0.083278    1.514282
     26          6           0       -0.189154    2.444629   -1.905155
     27          1           0       -0.587371    2.034263   -2.833339
     28          1           0       -0.431674    3.505538   -1.813180
     29          1           0        0.894460    2.310795   -1.859115
     30          6           0       -2.047411   -0.173479   -0.346748
     31          6           0       -3.158890   -1.096831   -0.786385
     32          6           0       -3.096086   -1.570668   -2.035390
     33          6           0       -4.274909   -1.449696    0.167793
     34          8           0       -1.112024    0.137610   -1.083229
     35          1           0       -3.853279   -2.242668   -2.429884
     36          1           0       -2.272122   -1.289522   -2.682738
     37          1           0       -4.989875   -2.128325   -0.306031
     38          1           0       -3.896432   -1.945610    1.071514
     39          1           0       -4.831060   -0.559631    0.493068
 ---------------------------------------------------------------------
 Rotational constants (GHZ):      0.4590683      0.2670134      0.2286430
 Leave Link  202 at Wed Feb 07 14:16:08 2024, MaxMem=    33554432 cpu:         0.0
 (Enter C:\G09W\l301.exe)
 Standard basis: 6-31G(d,p) (6D, 7F)
 Ernie: Thresh=  0.10000D-02 Tol=  0.10000D-05 Strict=F.
 There are   405 symmetry adapted cartesian basis functions of A   symmetry.
 There are   405 symmetry adapted basis functions of A   symmetry.
   405 basis functions,   714 primitive gaussians,   405 cartesian basis functions
    76 alpha electrons       76 beta electrons
       nuclear repulsion energy      1760.9661125057 Hartrees.
 IExCor=  402 DFT=T Ex+Corr=B3LYP ExCW=0 ScaHFX=  0.200000
 ScaDFX=  0.800000  0.720000  1.000000  0.810000 ScalE2=  1.000000  1.000000
 IRadAn=      0 IRanWt=     -1 IRanGd=            0 ICorTp=0 IEmpDi=  4
 NAtoms=   39 NActive=   39 NUniq=   39 SFac= 1.00D+00 NAtFMM=   60 NAOKFM=F Big=F
 Integral buffers will be    262144 words long.
 Raffenetti 2 integral format.
 Two-electron integral symmetry is turned on.
 Leave Link  301 at Wed Feb 07 14:16:09 2024, MaxMem=    33554432 cpu:         0.0
 (Enter C:\G09W\l302.exe)
 NPDir=0 NMtPBC=     1 NCelOv=     1 NCel=       1 NClECP=     1 NCelD=      1
         NCelK=      1 NCelE2=     1 NClLst=     1 CellRange=     0.0.
 One-electron integrals computed using PRISM.
 NBasis=   405 RedAO= T EigKep=  3.64D-04  NBF=   405
 NBsUse=   405 1.00D-06 EigRej= -1.00D+00 NBFU=   405
 Precomputing XC quadrature grid using
 IXCGrd= 4 IRadAn=           0 IRanWt=          -1 IRanGd=           0 AccXCQ= 0.00D+00.
 Generated NRdTot=       0 NPtTot=           0 NUsed=           0 NTot=          16
 NSgBfM=   398   398   400   400   400 MxSgAt=    39 MxSgA2=    39.
 Leave Link  302 at Wed Feb 07 14:16:12 2024, MaxMem=    33554432 cpu:         1.0
 (Enter C:\G09W\l303.exe)
 DipDrv:  MaxL=1.
 Leave Link  303 at Wed Feb 07 14:16:13 2024, MaxMem=    33554432 cpu:         0.0
 (Enter C:\G09W\l401.exe)
 ExpMin= 1.61D-01 ExpMax= 5.48D+03 ExpMxC= 8.25D+02 IAcc=1 IRadAn=         1 AccDes= 0.00D+00
 Harris functional with IExCor=  402 and IRadAn=       1 diagonalized for initial guess.
 HarFok:  IExCor=  402 AccDes= 0.00D+00 IRadAn=         1 IDoV= 1 UseB2=F ITyADJ=14
 ICtDFT=  3500011 ScaDFX=  1.000000  1.000000  1.000000  1.000000
 FoFCou: FMM=F IPFlag=           0 FMFlag=      100000 FMFlg1=           0
         NFxFlg=           0 DoJE=T BraDBF=F KetDBF=T FulRan=T
         wScrn=  0.000000 ICntrl=     500 IOpCl=  0 I1Cent=   200000004 NGrid=           0
         NMat0=    1 NMatS0=      1 NMatT0=    0 NMatD0=    1 NMtDS0=    0 NMtDT0=    0
 Petite list used in FoFCou.
 Harris En= -955.619296794790    
 JPrj=0 DoOrth=F DoCkMO=F.
 Leave Link  401 at Wed Feb 07 14:16:16 2024, MaxMem=    33554432 cpu:         2.0
 (Enter C:\G09W\l502.exe)
 Closed shell SCF:
 Using DIIS extrapolation, IDIIS=  1040.
 Integral symmetry usage will be decided dynamically.
 IVT=      516292 IEndB=      516292 NGot=    33554432 MDV=    33219211
 LenX=    33219211 LenY=    33054745
 Requested convergence on RMS density matrix=1.00D-08 within 128 cycles.
 Requested convergence on MAX density matrix=1.00D-06.
 Requested convergence on             energy=1.00D-06.
 No special actions if energy rises.
 Fock matrices will be formed incrementally for  20 cycles.
 Integral accuracy reduced to 1.0D-05 until final iterations.

 Cycle   1  Pass 0  IDiag  1:
 FoFJK:  IHMeth= 1 ICntrl=       0 DoSepK=F KAlg= 0 I1Cent=   0 FoldK=F
 IRaf= 740000000 NMat=   1 IRICut=       1 DoRegI=T DoRafI=F ISym2E= 0.
 FoFCou: FMM=F IPFlag=           0 FMFlag=      100000 FMFlg1=           0
         NFxFlg=           0 DoJE=F BraDBF=F KetDBF=F FulRan=T
         wScrn=  0.000000 ICntrl=       0 IOpCl=  0 I1Cent=           0 NGrid=           0
         NMat0=    1 NMatS0=      1 NMatT0=    0 NMatD0=    1 NMtDS0=    0 NMtDT0=    0
 Symmetry not used in FoFCou.
 E= -955.028276689447    
 DIIS: error= 2.41D-02 at cycle   1 NSaved=   1.
 NSaved= 1 IEnMin= 1 EnMin= -955.028276689447     IErMin= 1 ErrMin= 2.41D-02
 ErrMax= 2.41D-02  0.00D+00 EMaxC= 1.00D-01 BMatC= 5.64D-01 BMatP= 5.64D-01
 IDIUse=3 WtCom= 7.59D-01 WtEn= 2.41D-01
 Coeff-Com:  0.100D+01
 Coeff-En:   0.100D+01
 Coeff:      0.100D+01
 Gap=     0.089 Goal=   None    Shift=    0.000
 GapD=    0.089 DampG=0.500 DampE=0.500 DampFc=0.2500 IDamp=-1.
 Damping current iteration by 2.50D-01
 RMSDP=5.17D-03 MaxDP=2.33D-01              OVMax= 3.41D-01

 Cycle   2  Pass 0  IDiag  1:
 RMSU=  1.28D-03    CP:  9.91D-01
 E= -955.218660707383     Delta-E=       -0.190384017936 Rises=F Damp=T
 DIIS: error= 1.42D-02 at cycle   2 NSaved=   2.
 NSaved= 2 IEnMin= 2 EnMin= -955.218660707383     IErMin= 2 ErrMin= 1.42D-02
 ErrMax= 1.42D-02  0.00D+00 EMaxC= 1.00D-01 BMatC= 1.28D-01 BMatP= 5.64D-01
 IDIUse=3 WtCom= 8.58D-01 WtEn= 1.42D-01
 Coeff-Com: -0.583D+00 0.158D+01
 Coeff-En:   0.000D+00 0.100D+01
 Coeff:     -0.500D+00 0.150D+01
 Gap=     0.189 Goal=   None    Shift=    0.000
 RMSDP=1.80D-03 MaxDP=6.71D-02 DE=-1.90D-01 OVMax= 4.09D-01

 Cycle   3  Pass 0  IDiag  1:
 RMSU=  1.73D-03    CP:  9.67D-01  1.21D+00
 E= -955.470883849542     Delta-E=       -0.252223142159 Rises=F Damp=F
 DIIS: error= 1.15D-02 at cycle   3 NSaved=   3.
 NSaved= 3 IEnMin= 3 EnMin= -955.470883849542     IErMin= 3 ErrMin= 1.15D-02
 ErrMax= 1.15D-02  0.00D+00 EMaxC= 1.00D-01 BMatC= 1.17D-01 BMatP= 1.28D-01
 IDIUse=3 WtCom= 8.85D-01 WtEn= 1.15D-01
 Coeff-Com: -0.441D+00 0.102D+01 0.419D+00
 Coeff-En:   0.000D+00 0.000D+00 0.100D+01
 Coeff:     -0.390D+00 0.904D+00 0.486D+00
 Gap=     0.114 Goal=   None    Shift=    0.000
 RMSDP=1.41D-03 MaxDP=1.11D-01 DE=-2.52D-01 OVMax= 2.15D-01

 Cycle   4  Pass 0  IDiag  1:
 RMSU=  8.80D-04    CP:  9.71D-01  1.53D+00  4.13D-01
 E= -955.545051649195     Delta-E=       -0.074167799653 Rises=F Damp=F
 DIIS: error= 6.00D-03 at cycle   4 NSaved=   4.
 NSaved= 4 IEnMin= 4 EnMin= -955.545051649195     IErMin= 4 ErrMin= 6.00D-03
 ErrMax= 6.00D-03  0.00D+00 EMaxC= 1.00D-01 BMatC= 3.60D-02 BMatP= 1.17D-01
 IDIUse=3 WtCom= 9.40D-01 WtEn= 6.00D-02
 Coeff-Com: -0.150D+00 0.353D+00 0.347D+00 0.451D+00
 Coeff-En:   0.000D+00 0.000D+00 0.269D+00 0.731D+00
 Coeff:     -0.141D+00 0.331D+00 0.342D+00 0.467D+00
 Gap=     0.128 Goal=   None    Shift=    0.000
 RMSDP=6.54D-04 MaxDP=5.05D-02 DE=-7.42D-02 OVMax= 1.11D-01

 Cycle   5  Pass 0  IDiag  1:
 RMSU=  3.05D-04    CP:  9.72D-01  1.36D+00  6.20D-01  5.50D-01
 E= -955.568932078356     Delta-E=       -0.023880429161 Rises=F Damp=F
 DIIS: error= 4.40D-03 at cycle   5 NSaved=   5.
 NSaved= 5 IEnMin= 5 EnMin= -955.568932078356     IErMin= 5 ErrMin= 4.40D-03
 ErrMax= 4.40D-03  0.00D+00 EMaxC= 1.00D-01 BMatC= 6.71D-03 BMatP= 3.60D-02
 IDIUse=3 WtCom= 9.56D-01 WtEn= 4.40D-02
 Coeff-Com: -0.246D-01 0.601D-01 0.180D+00 0.370D+00 0.415D+00
 Coeff-En:   0.000D+00 0.000D+00 0.000D+00 0.172D+00 0.828D+00
 Coeff:     -0.235D-01 0.575D-01 0.172D+00 0.361D+00 0.433D+00
 Gap=     0.124 Goal=   None    Shift=    0.000
 RMSDP=2.31D-04 MaxDP=1.32D-02 DE=-2.39D-02 OVMax= 2.88D-02

 Cycle   6  Pass 0  IDiag  1:
 RMSU=  1.08D-04    CP:  9.71D-01  1.39D+00  6.02D-01  6.20D-01  3.85D-01
 E= -955.573998247364     Delta-E=       -0.005066169008 Rises=F Damp=F
 DIIS: error= 8.99D-04 at cycle   6 NSaved=   6.
 NSaved= 6 IEnMin= 6 EnMin= -955.573998247364     IErMin= 6 ErrMin= 8.99D-04
 ErrMax= 8.99D-04  0.00D+00 EMaxC= 1.00D-01 BMatC= 3.44D-04 BMatP= 6.71D-03
 IDIUse=3 WtCom= 9.91D-01 WtEn= 8.99D-03
 Coeff-Com:  0.158D-03-0.322D-03 0.492D-01 0.129D+00 0.245D+00 0.577D+00
 Coeff-En:   0.000D+00 0.000D+00 0.000D+00 0.000D+00 0.282D-01 0.972D+00
 Coeff:      0.157D-03-0.320D-03 0.487D-01 0.128D+00 0.243D+00 0.580D+00
 Gap=     0.125 Goal=   None    Shift=    0.000
 RMSDP=6.00D-05 MaxDP=3.23D-03 DE=-5.07D-03 OVMax= 6.94D-03

 Cycle   7  Pass 0  IDiag  1:
 RMSU=  3.28D-05    CP:  9.71D-01  1.39D+00  6.03D-01  6.30D-01  4.91D-01
                    CP:  6.51D-01
 E= -955.574252545626     Delta-E=       -0.000254298262 Rises=F Damp=F
 DIIS: error= 1.84D-04 at cycle   7 NSaved=   7.
 NSaved= 7 IEnMin= 7 EnMin= -955.574252545626     IErMin= 7 ErrMin= 1.84D-04
 ErrMax= 1.84D-04  0.00D+00 EMaxC= 1.00D-01 BMatC= 3.94D-05 BMatP= 3.44D-04
 IDIUse=3 WtCom= 9.98D-01 WtEn= 1.84D-03
 Coeff-Com:  0.201D-02-0.501D-02 0.102D-01 0.350D-01 0.984D-01 0.349D+00
 Coeff-Com:  0.510D+00
 Coeff-En:   0.000D+00 0.000D+00 0.000D+00 0.000D+00 0.000D+00 0.497D-01
 Coeff-En:   0.950D+00
 Coeff:      0.201D-02-0.500D-02 0.102D-01 0.349D-01 0.983D-01 0.349D+00
 Coeff:      0.511D+00
 Gap=     0.125 Goal=   None    Shift=    0.000
 RMSDP=1.59D-05 MaxDP=8.63D-04 DE=-2.54D-04 OVMax= 1.42D-03

 Cycle   8  Pass 0  IDiag  1:
 RMSU=  1.03D-05    CP:  9.71D-01  1.39D+00  6.04D-01  6.30D-01  4.93D-01
                    CP:  6.96D-01  6.87D-01
 E= -955.574283998258     Delta-E=       -0.000031452632 Rises=F Damp=F
 DIIS: error= 4.71D-05 at cycle   8 NSaved=   8.
 NSaved= 8 IEnMin= 8 EnMin= -955.574283998258     IErMin= 8 ErrMin= 4.71D-05
 ErrMax= 4.71D-05  0.00D+00 EMaxC= 1.00D-01 BMatC= 1.79D-06 BMatP= 3.94D-05
 IDIUse=1 WtCom= 1.00D+00 WtEn= 0.00D+00
 Coeff-Com:  0.810D-03-0.202D-02 0.991D-03 0.596D-02 0.271D-01 0.128D+00
 Coeff-Com:  0.244D+00 0.596D+00
 Coeff:      0.810D-03-0.202D-02 0.991D-03 0.596D-02 0.271D-01 0.128D+00
 Coeff:      0.244D+00 0.596D+00
 Gap=     0.125 Goal=   None    Shift=    0.000
 RMSDP=5.29D-06 MaxDP=2.19D-04 DE=-3.15D-05 OVMax= 6.13D-04

 Initial convergence to 1.0D-05 achieved.  Increase integral accuracy.
 Cycle   9  Pass 1  IDiag  1:
 E= -955.574405186057     Delta-E=       -0.000121187799 Rises=F Damp=F
 DIIS: error= 4.66D-05 at cycle   1 NSaved=   1.
 NSaved= 1 IEnMin= 1 EnMin= -955.574405186057     IErMin= 1 ErrMin= 4.66D-05
 ErrMax= 4.66D-05  0.00D+00 EMaxC= 1.00D-01 BMatC= 1.23D-06 BMatP= 1.23D-06
 IDIUse=1 WtCom= 1.00D+00 WtEn= 0.00D+00
 Coeff-Com:  0.100D+01
 Coeff:      0.100D+01
 Gap=     0.125 Goal=   None    Shift=    0.000
 RMSDP=5.29D-06 MaxDP=2.19D-04 DE=-1.21D-04 OVMax= 7.75D-04

 Cycle  10  Pass 1  IDiag  1:
 RMSU=  2.34D-05    CP:  1.00D+00
 E= -955.574404925895     Delta-E=        0.000000260162 Rises=F Damp=F
 DIIS: error= 5.00D-05 at cycle   2 NSaved=   2.
 NSaved= 2 IEnMin= 1 EnMin= -955.574405186057     IErMin= 1 ErrMin= 4.66D-05
 ErrMax= 5.00D-05  0.00D+00 EMaxC= 1.00D-01 BMatC= 1.64D-06 BMatP= 1.23D-06
 IDIUse=1 WtCom= 1.00D+00 WtEn= 0.00D+00
 Coeff-Com:  0.546D+00 0.454D+00
 Coeff:      0.546D+00 0.454D+00
 Gap=     0.125 Goal=   None    Shift=    0.000
 RMSDP=4.92D-06 MaxDP=2.17D-04 DE= 2.60D-07 OVMax= 7.22D-04

 Cycle  11  Pass 1  IDiag  1:
 RMSU=  4.85D-06    CP:  1.00D+00  9.64D-01
 E= -955.574406148214     Delta-E=       -0.000001222318 Rises=F Damp=F
 DIIS: error= 2.32D-05 at cycle   3 NSaved=   3.
 NSaved= 3 IEnMin= 3 EnMin= -955.574406148214     IErMin= 3 ErrMin= 2.32D-05
 ErrMax= 2.32D-05  0.00D+00 EMaxC= 1.00D-01 BMatC= 3.83D-07 BMatP= 1.23D-06
 IDIUse=1 WtCom= 1.00D+00 WtEn= 0.00D+00
 Coeff-Com:  0.531D-01 0.319D+00 0.628D+00
 Coeff:      0.531D-01 0.319D+00 0.628D+00
 Gap=     0.125 Goal=   None    Shift=    0.000
 RMSDP=2.05D-06 MaxDP=1.03D-04 DE=-1.22D-06 OVMax= 2.33D-04

 Cycle  12  Pass 1  IDiag  1:
 RMSU=  1.19D-06    CP:  1.00D+00  9.86D-01  6.73D-01
 E= -955.574406428183     Delta-E=       -0.000000279970 Rises=F Damp=F
 DIIS: error= 1.07D-05 at cycle   4 NSaved=   4.
 NSaved= 4 IEnMin= 4 EnMin= -955.574406428183     IErMin= 4 ErrMin= 1.07D-05
 ErrMax= 1.07D-05  0.00D+00 EMaxC= 1.00D-01 BMatC= 1.05D-07 BMatP= 3.83D-07
 IDIUse=1 WtCom= 1.00D+00 WtEn= 0.00D+00
 Coeff-Com: -0.555D-02 0.197D+00 0.459D+00 0.350D+00
 Coeff:     -0.555D-02 0.197D+00 0.459D+00 0.350D+00
 Gap=     0.125 Goal=   None    Shift=    0.000
 RMSDP=9.61D-07 MaxDP=8.07D-05 DE=-2.80D-07 OVMax= 1.51D-04

 Cycle  13  Pass 1  IDiag  1:
 RMSU=  4.72D-07    CP:  1.00D+00  9.88D-01  7.09D-01  3.13D-01
 E= -955.574406503589     Delta-E=       -0.000000075405 Rises=F Damp=F
 DIIS: error= 2.89D-06 at cycle   5 NSaved=   5.
 NSaved= 5 IEnMin= 5 EnMin= -955.574406503589     IErMin= 5 ErrMin= 2.89D-06
 ErrMax= 2.89D-06  0.00D+00 EMaxC= 1.00D-01 BMatC= 7.37D-09 BMatP= 1.05D-07
 IDIUse=1 WtCom= 1.00D+00 WtEn= 0.00D+00
 Coeff-Com: -0.824D-02 0.113D+00 0.272D+00 0.253D+00 0.370D+00
 Coeff:     -0.824D-02 0.113D+00 0.272D+00 0.253D+00 0.370D+00
 Gap=     0.125 Goal=   None    Shift=    0.000
 RMSDP=2.48D-07 MaxDP=1.41D-05 DE=-7.54D-08 OVMax= 3.37D-05

 Cycle  14  Pass 1  IDiag  1:
 RMSU=  1.30D-07    CP:  1.00D+00  9.88D-01  7.07D-01  3.70D-01  5.77D-01
 E= -955.574406509893     Delta-E=       -0.000000006305 Rises=F Damp=F
 DIIS: error= 3.37D-07 at cycle   6 NSaved=   6.
 NSaved= 6 IEnMin= 6 EnMin= -955.574406509893     IErMin= 6 ErrMin= 3.37D-07
 ErrMax= 3.37D-07  0.00D+00 EMaxC= 1.00D-01 BMatC= 1.20D-10 BMatP= 7.37D-09
 IDIUse=1 WtCom= 1.00D+00 WtEn= 0.00D+00
 Coeff-Com: -0.337D-02 0.374D-01 0.904D-01 0.947D-01 0.156D+00 0.625D+00
 Coeff:     -0.337D-02 0.374D-01 0.904D-01 0.947D-01 0.156D+00 0.625D+00
 Gap=     0.125 Goal=   None    Shift=    0.000
 RMSDP=4.65D-08 MaxDP=1.61D-06 DE=-6.30D-09 OVMax= 5.36D-06

 Cycle  15  Pass 1  IDiag  1:
 RMSU=  4.26D-08    CP:  1.00D+00  9.88D-01  7.07D-01  3.69D-01  6.13D-01
                    CP:  9.63D-01
 E= -955.574406510020     Delta-E=       -0.000000000127 Rises=F Damp=F
 DIIS: error= 2.41D-07 at cycle   7 NSaved=   7.
 NSaved= 7 IEnMin= 7 EnMin= -955.574406510020     IErMin= 7 ErrMin= 2.41D-07
 ErrMax= 2.41D-07  0.00D+00 EMaxC= 1.00D-01 BMatC= 4.21D-11 BMatP= 1.20D-10
 IDIUse=1 WtCom= 1.00D+00 WtEn= 0.00D+00
 Coeff-Com: -0.575D-03 0.263D-02 0.636D-02 0.139D-01 0.184D-01 0.375D+00
 Coeff-Com:  0.584D+00
 Coeff:     -0.575D-03 0.263D-02 0.636D-02 0.139D-01 0.184D-01 0.375D+00
 Coeff:      0.584D+00
 Gap=     0.125 Goal=   None    Shift=    0.000
 RMSDP=2.09D-08 MaxDP=7.59D-07 DE=-1.27D-10 OVMax= 2.28D-06

 Cycle  16  Pass 1  IDiag  1:
 RMSU=  1.54D-08    CP:  1.00D+00  9.88D-01  7.07D-01  3.70D-01  6.19D-01
                    CP:  1.02D+00  7.45D-01
 E= -955.574406510021     Delta-E=       -0.000000000001 Rises=F Damp=F
 DIIS: error= 1.02D-07 at cycle   8 NSaved=   8.
 NSaved= 8 IEnMin= 8 EnMin= -955.574406510021     IErMin= 8 ErrMin= 1.02D-07
 ErrMax= 1.02D-07  0.00D+00 EMaxC= 1.00D-01 BMatC= 6.08D-12 BMatP= 4.21D-11
 IDIUse=1 WtCom= 1.00D+00 WtEn= 0.00D+00
 Coeff-Com:  0.948D-04-0.327D-02-0.817D-02-0.344D-02-0.140D-01 0.138D+00
 Coeff-Com:  0.339D+00 0.551D+00
 Coeff:      0.948D-04-0.327D-02-0.817D-02-0.344D-02-0.140D-01 0.138D+00
 Coeff:      0.339D+00 0.551D+00
 Gap=     0.125 Goal=   None    Shift=    0.000
 RMSDP=8.02D-09 MaxDP=3.64D-07 DE=-9.09D-13 OVMax= 9.46D-07

 SCF Done:  E(RB3LYP) =  -955.574406510     A.U. after   16 cycles
            NFock= 16  Conv=0.80D-08     -V/T= 2.0084
 KE= 9.476419392765D+02 PE=-5.747971718365D+03 EE= 2.083789260072D+03
 Leave Link  502 at Wed Feb 07 14:19:02 2024, MaxMem=    33554432 cpu:       164.0
 (Enter C:\G09W\l601.exe)
 Copying SCF densities to generalized density rwf, IOpCl= 0 IROHF=0.

 **********************************************************************

            Population analysis using the SCF density.

 **********************************************************************

 Orbital symmetries:
       Occupied  (A) (A) (A) (A) (A) (A) (A) (A) (A) (A) (A) (A)
                 (A) (A) (A) (A) (A) (A) (A) (A) (A) (A) (A) (A)
                 (A) (A) (A) (A) (A) (A) (A) (A) (A) (A) (A) (A)
                 (A) (A) (A) (A) (A) (A) (A) (A) (A) (A) (A) (A)
                 (A) (A) (A) (A) (A) (A) (A) (A) (A) (A) (A) (A)
                 (A) (A) (A) (A) (A) (A) (A) (A) (A) (A) (A) (A)
                 (A) (A) (A) (A)
       Virtual   (A) (A) (A) (A) (A) (A) (A) (A) (A) (A) (A) (A)
                 (A) (A) (A) (A) (A) (A) (A) (A) (A) (A) (A) (A)
                 (A) (A) (A) (A) (A) (A) (A) (A) (A) (A) (A) (A)
                 (A) (A) (A) (A) (A) (A) (A) (A) (A) (A) (A) (A)
                 (A) (A) (A) (A) (A) (A) (A) (A) (A) (A) (A) (A)
                 (A) (A) (A) (A) (A) (A) (A) (A) (A) (A) (A) (A)
                 (A) (A) (A) (A) (A) (A) (A) (A) (A) (A) (A) (A)
                 (A) (A) (A) (A) (A) (A) (A) (A) (A) (A) (A) (A)
                 (A) (A) (A) (A) (A) (A) (A) (A) (A) (A) (A) (A)
                 (A) (A) (A) (A) (A) (A) (A) (A) (A) (A) (A) (A)
                 (A) (A) (A) (A) (A) (A) (A) (A) (A) (A) (A) (A)
                 (A) (A) (A) (A) (A) (A) (A) (A) (A) (A) (A) (A)
                 (A) (A) (A) (A) (A) (A) (A) (A) (A) (A) (A) (A)
                 (A) (A) (A) (A) (A) (A) (A) (A) (A) (A) (A) (A)
                 (A) (A) (A) (A) (A) (A) (A) (A) (A) (A) (A) (A)
                 (A) (A) (A) (A) (A) (A) (A) (A) (A) (A) (A) (A)
                 (A) (A) (A) (A) (A) (A) (A) (A) (A) (A) (A) (A)
                 (A) (A) (A) (A) (A) (A) (A) (A) (A) (A) (A) (A)
                 (A) (A) (A) (A) (A) (A) (A) (A) (A) (A) (A) (A)
                 (A) (A) (A) (A) (A) (A) (A) (A) (A) (A) (A) (A)
                 (A) (A) (A) (A) (A) (A) (A) (A) (A) (A) (A) (A)
                 (A) (A) (A) (A) (A) (A) (A) (A) (A) (A) (A) (A)
                 (A) (A) (A) (A) (A) (A) (A) (A) (A) (A) (A) (A)
                 (A) (A) (A) (A) (A) (A) (A) (A) (A) (A) (A) (A)
                 (A) (A) (A) (A) (A) (A) (A) (A) (A) (A) (A) (A)
                 (A) (A) (A) (A) (A) (A) (A) (A) (A) (A) (A) (A)
                 (A) (A) (A) (A) (A) (A) (A) (A) (A) (A) (A) (A)
                 (A) (A) (A) (A) (A)
 The electronic state is 1-A.
 Alpha  occ. eigenvalues --  -19.17841 -19.12364 -19.10305 -14.37181 -14.35156
 Alpha  occ. eigenvalues --  -10.30194 -10.25486 -10.24141 -10.22333 -10.21161
 Alpha  occ. eigenvalues --  -10.20921 -10.19643 -10.19204 -10.19146 -10.17974
 Alpha  occ. eigenvalues --  -10.17495 -10.17476 -10.17386 -10.17218 -10.16943
 Alpha  occ. eigenvalues --  -10.16902  -1.11943  -1.03663  -0.99241  -0.96919
 Alpha  occ. eigenvalues --   -0.92352  -0.82661  -0.80572  -0.78853  -0.75453
 Alpha  occ. eigenvalues --   -0.72444  -0.72193  -0.70452  -0.68862  -0.65849
 Alpha  occ. eigenvalues --   -0.62325  -0.61147  -0.58289  -0.57200  -0.56249
 Alpha  occ. eigenvalues --   -0.54568  -0.52702  -0.52382  -0.50267  -0.48534
 Alpha  occ. eigenvalues --   -0.47463  -0.46205  -0.45964  -0.45380  -0.43655
 Alpha  occ. eigenvalues --   -0.43374  -0.42367  -0.41790  -0.41570  -0.41081
 Alpha  occ. eigenvalues --   -0.40414  -0.40271  -0.39414  -0.39190  -0.38577
 Alpha  occ. eigenvalues --   -0.37738  -0.36759  -0.36053  -0.35147  -0.34064
 Alpha  occ. eigenvalues --   -0.33585  -0.32216  -0.32180  -0.29839  -0.26872
 Alpha  occ. eigenvalues --   -0.26679  -0.24787  -0.24415  -0.21158  -0.19263
 Alpha  occ. eigenvalues --   -0.13649
 Alpha virt. eigenvalues --   -0.01136  -0.00066   0.01576   0.03734   0.05945
 Alpha virt. eigenvalues --    0.07507   0.08472   0.10065   0.11093   0.12083
 Alpha virt. eigenvalues --    0.12547   0.12905   0.13583   0.14311   0.15330
 Alpha virt. eigenvalues --    0.15548   0.16188   0.16734   0.16804   0.18038
 Alpha virt. eigenvalues --    0.18240   0.18432   0.18815   0.19047   0.19675
 Alpha virt. eigenvalues --    0.20957   0.21645   0.22828   0.24190   0.24939
 Alpha virt. eigenvalues --    0.25231   0.27586   0.28369   0.28923   0.32177
 Alpha virt. eigenvalues --    0.32464   0.32962   0.34709   0.35525   0.35904
 Alpha virt. eigenvalues --    0.36451   0.40016   0.40550   0.43893   0.44640
 Alpha virt. eigenvalues --    0.48085   0.49297   0.50151   0.51910   0.52291
 Alpha virt. eigenvalues --    0.52746   0.53052   0.54097   0.54614   0.54778
 Alpha virt. eigenvalues --    0.55593   0.56453   0.56998   0.57500   0.59131
 Alpha virt. eigenvalues --    0.59555   0.60283   0.60799   0.61403   0.62154
 Alpha virt. eigenvalues --    0.62425   0.63078   0.63194   0.63508   0.64392
 Alpha virt. eigenvalues --    0.66006   0.67141   0.67917   0.67989   0.69017
 Alpha virt. eigenvalues --    0.70439   0.70690   0.71666   0.71844   0.73176
 Alpha virt. eigenvalues --    0.75757   0.76003   0.77023   0.77990   0.78855
 Alpha virt. eigenvalues --    0.79475   0.80710   0.81028   0.81660   0.82240
 Alpha virt. eigenvalues --    0.82730   0.82903   0.83864   0.84393   0.84777
 Alpha virt. eigenvalues --    0.85641   0.86311   0.86329   0.88320   0.88964
 Alpha virt. eigenvalues --    0.89882   0.90237   0.90999   0.92188   0.92503
 Alpha virt. eigenvalues --    0.92903   0.93830   0.95815   0.96664   0.96727
 Alpha virt. eigenvalues --    0.97656   0.98767   0.99160   0.99897   1.02338
 Alpha virt. eigenvalues --    1.04111   1.05259   1.07248   1.08982   1.10576
 Alpha virt. eigenvalues --    1.11099   1.11816   1.12380   1.13623   1.15278
 Alpha virt. eigenvalues --    1.16227   1.17299   1.19378   1.21792   1.22850
 Alpha virt. eigenvalues --    1.24017   1.25082   1.25977   1.29306   1.31690
 Alpha virt. eigenvalues --    1.32236   1.33224   1.34336   1.34628   1.36601
 Alpha virt. eigenvalues --    1.36873   1.38378   1.39313   1.39629   1.41217
 Alpha virt. eigenvalues --    1.42154   1.42767   1.43520   1.44604   1.46575
 Alpha virt. eigenvalues --    1.47013   1.47765   1.49489   1.53045   1.54281
 Alpha virt. eigenvalues --    1.57889   1.60181   1.61787   1.62836   1.64822
 Alpha virt. eigenvalues --    1.66147   1.69786   1.72241   1.72812   1.74771
 Alpha virt. eigenvalues --    1.75590   1.76210   1.77376   1.79407   1.79721
 Alpha virt. eigenvalues --    1.80690   1.81396   1.82567   1.84422   1.85582
 Alpha virt. eigenvalues --    1.85933   1.87279   1.88241   1.89655   1.90114
 Alpha virt. eigenvalues --    1.91266   1.91764   1.92716   1.94479   1.94853
 Alpha virt. eigenvalues --    1.95758   1.96478   1.97057   1.97744   1.98696
 Alpha virt. eigenvalues --    2.00427   2.00605   2.01038   2.02025   2.02972
 Alpha virt. eigenvalues --    2.03452   2.03794   2.04551   2.05600   2.06809
 Alpha virt. eigenvalues --    2.07331   2.07959   2.08533   2.09061   2.09912
 Alpha virt. eigenvalues --    2.11743   2.13254   2.14884   2.16424   2.16670
 Alpha virt. eigenvalues --    2.17142   2.19068   2.20377   2.22363   2.23298
 Alpha virt. eigenvalues --    2.24016   2.25929   2.27572   2.28310   2.28889
 Alpha virt. eigenvalues --    2.29737   2.30492   2.33585   2.34840   2.35634
 Alpha virt. eigenvalues --    2.37252   2.39111   2.39911   2.40280   2.40856
 Alpha virt. eigenvalues --    2.42215   2.42895   2.43919   2.45002   2.45563
 Alpha virt. eigenvalues --    2.47751   2.48939   2.49700   2.50382   2.52178
 Alpha virt. eigenvalues --    2.52444   2.53254   2.55376   2.56262   2.56540
 Alpha virt. eigenvalues --    2.56994   2.58052   2.59538   2.60365   2.61304
 Alpha virt. eigenvalues --    2.61963   2.63783   2.64641   2.65852   2.68344
 Alpha virt. eigenvalues --    2.68731   2.70308   2.70669   2.71492   2.72338
 Alpha virt. eigenvalues --    2.73240   2.73609   2.74070   2.76643   2.77004
 Alpha virt. eigenvalues --    2.78256   2.79680   2.80469   2.83525   2.85384
 Alpha virt. eigenvalues --    2.86153   2.86720   2.88133   2.90840   2.92572
 Alpha virt. eigenvalues --    2.95112   2.96786   2.98690   3.00791   3.02739
 Alpha virt. eigenvalues --    3.04874   3.06640   3.07327   3.10386   3.13416
 Alpha virt. eigenvalues --    3.16565   3.18691   3.19410   3.22862   3.23579
 Alpha virt. eigenvalues --    3.25751   3.28010   3.29225   3.31548   3.37553
 Alpha virt. eigenvalues --    3.38075   3.39245   3.41408   3.43816   3.44828
 Alpha virt. eigenvalues --    3.45277   3.47415   3.49842   3.50659   3.57418
 Alpha virt. eigenvalues --    3.62333   3.69392   3.87023   4.09610   4.10153
 Alpha virt. eigenvalues --    4.12027   4.15336   4.16702   4.22890   4.25979
 Alpha virt. eigenvalues --    4.30189   4.32334   4.35543   4.42201   4.43585
 Alpha virt. eigenvalues --    4.45956   4.49770   4.53690   4.61028   4.63085
 Alpha virt. eigenvalues --    4.73249   4.78764   4.82682   4.91503
          Condensed to atoms (all electrons):
               1          2          3          4          5          6
     1  N    7.177872   0.181115  -0.040726  -0.031346   0.003022  -0.057645
     2  C    0.181115   5.096374   0.375661   0.349027  -0.067615   0.315002
     3  H   -0.040726   0.375661   0.602312  -0.029768  -0.000229  -0.034647
     4  C   -0.031346   0.349027  -0.029768   4.405191   0.492321  -0.036193
     5  O    0.003022  -0.067615  -0.000229   0.492321   8.127518  -0.000667
     6  C   -0.057645   0.315002  -0.034647  -0.036193  -0.000667   5.107081
     7  H    0.005435  -0.040946   0.000346  -0.005843   0.006887   0.350990
     8  H   -0.001735  -0.037643  -0.006264   0.005444   0.000107   0.365171
     9  C   -0.012365  -0.044339   0.005084  -0.007851  -0.001528   0.372933
    10  C    0.005135  -0.004126   0.000048  -0.000489  -0.000019  -0.085172
    11  H    0.000721   0.000032  -0.000007   0.000027   0.000000  -0.002799
    12  C   -0.000658  -0.002871   0.000004   0.003137  -0.000384  -0.054313
    13  N    0.000061   0.000028   0.000001   0.000001   0.000000   0.005288
    14  H   -0.000001  -0.000001   0.000000   0.000000   0.000000  -0.000094
    15  C   -0.000007   0.000045   0.000002  -0.000069   0.000003   0.010320
    16  C    0.000045  -0.000181  -0.000019   0.003095  -0.004802  -0.013082
    17  H   -0.000002  -0.000233   0.000029   0.000261   0.012205   0.002255
    18  C    0.000000   0.000002   0.000000  -0.000004   0.000000  -0.000204
    19  H    0.000000   0.000000   0.000000   0.000000   0.000000   0.000002
    20  C    0.000000  -0.000014   0.000000  -0.000012   0.000066   0.000034
    21  H    0.000000   0.000000   0.000000   0.000002  -0.000004   0.000000
    22  C    0.000000   0.000000   0.000000  -0.000003   0.000001   0.000005
    23  H    0.000000   0.000000   0.000000   0.000000   0.000000   0.000000
    24  O    0.024864  -0.091423   0.002064   0.207126  -0.071053  -0.000416
    25  H    0.336070  -0.024842  -0.005358   0.002788  -0.000074   0.000290
    26  C   -0.001657   0.007834  -0.000157   0.005402  -0.002488  -0.000295
    27  H   -0.000043  -0.000085   0.000006   0.005466   0.000527  -0.000004
    28  H    0.000101   0.000154   0.000022  -0.011674   0.008153  -0.000009
    29  H    0.000002  -0.000352  -0.000018  -0.005462   0.003884   0.000124
    30  C    0.217545  -0.021298   0.003371  -0.006912  -0.000247  -0.002629
    31  C   -0.107810   0.006114  -0.000190   0.000263  -0.000005  -0.000216
    32  C    0.008036  -0.000264   0.000003   0.000006   0.000000   0.000010
    33  C   -0.007001   0.000144  -0.000004  -0.000052   0.000000   0.000006
    34  O   -0.118562   0.016783   0.000116   0.009632  -0.000813  -0.002835
    35  H   -0.000123   0.000002   0.000000   0.000000   0.000000   0.000000
    36  H    0.000735  -0.000013   0.000000  -0.000012   0.000000   0.000000
    37  H    0.000017   0.000001   0.000000   0.000001   0.000000   0.000000
    38  H    0.001661  -0.000033   0.000014   0.000003   0.000000  -0.000019
    39  H    0.000509  -0.000016  -0.000010  -0.000009   0.000000   0.000010
               7          8          9         10         11         12
     1  N    0.005435  -0.001735  -0.012365   0.005135   0.000721  -0.000658
     2  C   -0.040946  -0.037643  -0.044339  -0.004126   0.000032  -0.002871
     3  H    0.000346  -0.006264   0.005084   0.000048  -0.000007   0.000004
     4  C   -0.005843   0.005444  -0.007851  -0.000489   0.000027   0.003137
     5  O    0.006887   0.000107  -0.001528  -0.000019   0.000000  -0.000384
     6  C    0.350990   0.365171   0.372933  -0.085172  -0.002799  -0.054313
     7  H    0.608299  -0.030256  -0.023922   0.004128  -0.000022  -0.006469
     8  H   -0.030256   0.639370  -0.029698  -0.007000   0.003514   0.003643
     9  C   -0.023922  -0.029698   4.943778   0.496677  -0.030859   0.405196
    10  C    0.004128  -0.007000   0.496677   4.972625   0.371221   0.014528
    11  H   -0.000022   0.003514  -0.030859   0.371221   0.603092   0.003048
    12  C   -0.006469   0.003643   0.405196   0.014528   0.003048   4.794352
    13  N   -0.000050   0.000037  -0.051317   0.307753  -0.047271  -0.055176
    14  H    0.000004  -0.000006   0.004484  -0.032581  -0.002375   0.007062
    15  C   -0.000237  -0.000109   0.004930  -0.132932   0.005118   0.454109
    16  C    0.003207  -0.000001  -0.103778   0.015141  -0.000164   0.490027
    17  H    0.002112  -0.000009  -0.007857  -0.000180  -0.000002  -0.035731
    18  C   -0.000007   0.000003   0.011784   0.005806  -0.000137  -0.049153
    19  H    0.000000   0.000000  -0.000264  -0.000001   0.000001   0.004453
    20  C   -0.000003   0.000002   0.007822  -0.000395   0.000004  -0.010051
    21  H    0.000000   0.000000  -0.000201   0.000005   0.000000   0.002465
    22  C    0.000002   0.000000   0.000036  -0.000095   0.000002  -0.036049
    23  H    0.000000   0.000000   0.000008   0.000003   0.000000   0.001015
    24  O    0.000120  -0.000106   0.001346   0.000064  -0.000003  -0.000518
    25  H   -0.000139   0.001605   0.000263  -0.000010   0.000060   0.000006
    26  C    0.000032   0.000007   0.000064   0.000001   0.000000  -0.000012
    27  H    0.000000   0.000000   0.000001   0.000000   0.000000  -0.000013
    28  H   -0.000007   0.000000   0.000003   0.000000   0.000000   0.000014
    29  H   -0.000012   0.000000  -0.000184  -0.000004   0.000000   0.000136
    30  C    0.000117  -0.000194   0.004404   0.004657  -0.000003  -0.000178
    31  C    0.000007   0.000014  -0.000142   0.000040   0.000060   0.000015
    32  C    0.000000   0.000000  -0.000003  -0.000012  -0.000004   0.000002
    33  C    0.000000  -0.000013  -0.000006  -0.000047  -0.000006   0.000000
    34  O    0.000104   0.000023   0.000996  -0.000814   0.000029   0.001136
    35  H    0.000000   0.000000   0.000000   0.000000   0.000000   0.000000
    36  H    0.000000   0.000000  -0.000004   0.000007   0.000000   0.000000
    37  H    0.000000   0.000000   0.000000   0.000000  -0.000001   0.000000
    38  H    0.000000   0.000018  -0.000004   0.000067   0.000201   0.000000
    39  H    0.000000  -0.000002   0.000001   0.000001  -0.000002   0.000000
              13         14         15         16         17         18
     1  N    0.000061  -0.000001  -0.000007   0.000045  -0.000002   0.000000
     2  C    0.000028  -0.000001   0.000045  -0.000181  -0.000233   0.000002
     3  H    0.000001   0.000000   0.000002  -0.000019   0.000029   0.000000
     4  C    0.000001   0.000000  -0.000069   0.003095   0.000261  -0.000004
     5  O    0.000000   0.000000   0.000003  -0.004802   0.012205   0.000000
     6  C    0.005288  -0.000094   0.010320  -0.013082   0.002255  -0.000204
     7  H   -0.000050   0.000004  -0.000237   0.003207   0.002112  -0.000007
     8  H    0.000037  -0.000006  -0.000109  -0.000001  -0.000009   0.000003
     9  C   -0.051317   0.004484   0.004930  -0.103778  -0.007857   0.011784
    10  C    0.307753  -0.032581  -0.132932   0.015141  -0.000180   0.005806
    11  H   -0.047271  -0.002375   0.005118  -0.000164  -0.000002  -0.000137
    12  C   -0.055176   0.007062   0.454109   0.490027  -0.035731  -0.049153
    13  N    6.916604   0.357716   0.264922   0.011259  -0.000106  -0.091982
    14  H    0.357716   0.441758  -0.030464  -0.000120   0.000004  -0.004830
    15  C    0.264922  -0.030464   4.794831  -0.059946   0.005155   0.477178
    16  C    0.011259  -0.000120  -0.059946   5.075307   0.354053  -0.057478
    17  H   -0.000106   0.000004   0.005155   0.354053   0.604093   0.000419
    18  C   -0.091982  -0.004830   0.477178  -0.057478   0.000419   4.983774
    19  H   -0.006225   0.002773  -0.038318   0.000557   0.000017   0.356127
    20  C   -0.000144  -0.000002  -0.043352   0.504016  -0.040220  -0.030924
    21  H    0.000003   0.000000   0.001084  -0.036537  -0.005470   0.004733
    22  C    0.005308  -0.000082  -0.005453  -0.027667   0.004374   0.530951
    23  H   -0.000115  -0.000002   0.002979   0.004651  -0.000172  -0.038555
    24  O    0.000002   0.000000  -0.000046   0.000495  -0.000792   0.000003
    25  H    0.000000   0.000000  -0.000001  -0.000001   0.000000   0.000000
    26  C   -0.000001   0.000000   0.000006  -0.001948   0.000295   0.000010
    27  H    0.000000   0.000000  -0.000001   0.000009   0.000011   0.000000
    28  H    0.000000   0.000000   0.000000   0.000090  -0.000104   0.000000
    29  H    0.000001   0.000000  -0.000016   0.003902   0.000790  -0.000037
    30  C   -0.000257   0.000000   0.000135  -0.000026   0.000002   0.000005
    31  C   -0.000011   0.000000  -0.000010   0.000000   0.000000   0.000000
    32  C    0.000006   0.000001  -0.000002   0.000000   0.000000   0.000000
    33  C   -0.000001   0.000000   0.000000   0.000000   0.000000   0.000000
    34  O   -0.000340  -0.000008   0.000561  -0.000198   0.000124   0.000028
    35  H    0.000000   0.000000   0.000000   0.000000   0.000000   0.000000
    36  H   -0.000001   0.000000   0.000002   0.000000   0.000000   0.000000
    37  H    0.000000   0.000000   0.000000   0.000000   0.000000   0.000000
    38  H    0.000000   0.000000   0.000000   0.000000   0.000000   0.000000
    39  H    0.000000   0.000000   0.000000   0.000000   0.000000   0.000000
              19         20         21         22         23         24
     1  N    0.000000   0.000000   0.000000   0.000000   0.000000   0.024864
     2  C    0.000000  -0.000014   0.000000   0.000000   0.000000  -0.091423
     3  H    0.000000   0.000000   0.000000   0.000000   0.000000   0.002064
     4  C    0.000000  -0.000012   0.000002  -0.000003   0.000000   0.207126
     5  O    0.000000   0.000066  -0.000004   0.000001   0.000000  -0.071053
     6  C    0.000002   0.000034   0.000000   0.000005   0.000000  -0.000416
     7  H    0.000000  -0.000003   0.000000   0.000002   0.000000   0.000120
     8  H    0.000000   0.000002   0.000000   0.000000   0.000000  -0.000106
     9  C   -0.000264   0.007822  -0.000201   0.000036   0.000008   0.001346
    10  C   -0.000001  -0.000395   0.000005  -0.000095   0.000003   0.000064
    11  H    0.000001   0.000004   0.000000   0.000002   0.000000  -0.000003
    12  C    0.004453  -0.010051   0.002465  -0.036049   0.001015  -0.000518
    13  N   -0.006225  -0.000144   0.000003   0.005308  -0.000115   0.000002
    14  H    0.002773  -0.000002   0.000000  -0.000082  -0.000002   0.000000
[...]
 13119,0.00009615,-0.00012800,0.00002338,-0.00004635,0.00006961,0.00020
 053,-0.00001976,0.00014915,-0.00001576,-0.00007241,-0.00000738,-0.0000
 0459,-0.00000684,-0.00000466,0.00001474,0.00000847,-0.00002465,0.00008
 128,0.00004116,0.00000559,0.00001426,-0.00000411,-0.00000304,-0.000014
 98,-0.00000046,-0.00002164,-0.00010105,-0.00000635,-0.00001320,0.00002
 013,-0.00003669,0.00001967,-0.00000507,-0.00000243,0.00003372,0.000004
 27,-0.00000345,0.00000110,-0.00000043,0.00000807,-0.00000832,0.0000033
 4,0.00000573,-0.00000613,-0.00000625,-0.00000884,0.00000052,-0.0000011
 1,-0.00000333,-0.00000517,-0.00000094,0.00000068,-0.00000208,-0.000000
 44,0.00000222,0.00000594,-0.00000035,-0.00000106,0.00000106,0.00004318
 ,-0.00003183,0.00003629,0.00013949,0.00029844,0.00009207,-0.00000651,-
 0.00001132,-0.00002762,-0.00000473,-0.00000028,0.00000001,0.00000556,-
 0.00000142,0.00000608,-0.00000115,0.00000326,-0.00000288,0.00472527,0.
 01006481,0.00113070,0.00605028,0.00227168,0.00801672,0.07887624,-0.085
 84218,0.08031286,-0.00312728,-0.00624671,-0.00097104,-0.00031571,-0.00
 081857,-0.00025584,-0.08854065,0.07915801,0.00008061,-0.00034243,0.000
 61539,0.00007891,-0.00026177,0.00004926,-0.00001910,0.00001797,0.00000
 125,0.00015001,0.00000760,0.00005272,-0.00004225,0.00001166,-0.0000410
 1,0.00004670,-0.00002744,0.00000958,-0.00000413,-0.00000777,-0.0000072
 4,0.00000094,-0.00000014,0.00000552,0.00001067,0.00002026,0.00001246,-
 0.00004278,-0.00000789,-0.00002322,-0.00000044,-0.00000757,-0.00000082
 ,0.00000057,-0.00000011,0.00000622,0.00002396,0.00002352,-0.00000817,-
 0.00000817,-0.00000745,-0.00001035,0.00000501,-0.00000618,-0.00000288,
 0.00000208,0.00000994,0.00001466,0.00000315,-0.00000836,0.00000506,-0.
 00001886,-0.00000219,0.00000453,0.00000566,0.00000186,0.00000240,0.000
 00385,0.00001018,0.00000647,0.00000112,-0.00000274,-0.00000304,-0.0000
 0693,-0.00000057,-0.00000338,0.00000393,0.00000097,-0.00000448,-0.0000
 6127,-0.00004984,-0.00003003,-0.00005987,0.00008624,0.00009762,0.00002
 712,0.00005108,0.00003237,-0.00000174,-0.00000735,0.00000140,-0.000010
 72,-0.00000167,-0.00000556,0.00000579,0.00000010,0.00001231,0.00304019
 ,0.00213583,-0.00197016,0.00840315,-0.00355866,0.00770926,-0.11909320,
 0.08226703,-0.18547535,0.00038992,-0.00213017,0.00067399,-0.00191510,0
 .00031504,0.00093146,0.12644983,-0.08846851,0.18706375,0.00147764,-0.0
 0024284,-0.00089926,-0.00006423,0.00024771,-0.00009229,0.00004752,-0.0
 0003348,-0.00000302,-0.00040680,0.00004709,-0.00022301,0.00009116,-0.0
 0008403,0.00016586,-0.00000117,0.00007515,0.00004950,-0.00000350,-0.00
 001960,0.00001048,-0.00000246,-0.00001326,-0.00001275,0.00000618,-0.00
 002558,-0.00004577,0.00013203,0.00004646,0.00007124,0.00000841,-0.0000
 0751,-0.00000121,0.00000350,0.00000316,-0.00003461,-0.00014078,-0.0000
 3200,0.00000370,0.00001685,-0.00001857,0.00001603,0.00000127,-0.000000
 19,-0.00000599,0.00000958,-0.00000702,-0.00001808,-0.00000235,0.000021
 92,-0.00001777,0.00000217,0.00001195,-0.00001360,-0.00001097,-0.000017
 03,-0.00000419,-0.00000916,-0.00000956,-0.00000462,0.00000041,0.000001
 04,0.00000331,0.00000034,0.00000863,0.00002004,-0.00000621,-0.00000778
 ,0.00000855,0.00015022,0.00006561,0.00006910,0.00034833,-0.00016267,0.
 00003746,-0.00003908,-0.00008438,-0.00008084,-0.00000680,0.00000755,-0
 .00000118,0.00001989,0.00000018,0.00001317,-0.00001005,0.00000535,-0.0
 0002630,-0.00288502,-0.00267310,0.00386220,-0.00417198,-0.00338145,0.0
 2935204,-0.08016263,-0.00245371,0.08063758,-0.00236612,0.00594573,0.00
 008725,0.00147028,-0.00017074,-0.00226346,0.00802951,0.00209054,-0.017
 50029,0.07920443,-0.00060389,0.00040008,0.00049794,0.00022720,0.000309
 02,0.00009154,0.00001649,-0.00001989,0.00005016,0.00022636,0.00022355,
 0.00010069,-0.00005719,-0.00008136,-0.00002281,-0.00004813,0.00002815,
 -0.00008113,-0.00000367,0.00003160,-0.00000092,-0.00000527,-0.00000744
 ,0.00001024,0.00000518,0.00000439,-0.00001661,0.00005105,0.00002723,-0
 .00002891,0.00000358,-0.00000693,0.00000353,-0.00001009,-0.00001126,-0
 .00000125,-0.00008385,0.00004613,-0.00004106,0.00001640,-0.00005999,-0
 .00000978,0.00000694,-0.00002402,0.00004727,0.00000831,0.00000954,0.00
 002233,0.00000148,0.00000054,-0.00000074,-0.00003209,0.00000957,-0.000
 00234,0.00000041,-0.00001436,0.00000298,0.00000012,0.00000729,0.000007
 54,-0.00000056,-0.00000126,-0.00001101,-0.00000969,0.00000566,0.000014
 39,0.00000640,0.00000022,-0.00000504,-0.00007443,-0.00026285,-0.000070
 86,-0.00017531,0.00002772,-0.00000032,-0.00000821,0.00009676,0.0000872
 9,-0.00002203,-0.00002693,-0.00000537,0.00001079,-0.00001290,-0.000019
 44,0.00000276,0.00001897,-0.00002382,-0.00147968,-0.00614647,-0.003010
 84,0.00290107,0.00602226,-0.00926250,-0.00391169,-0.04468851,0.0345997
 8,0.00569572,0.00992027,0.00262563,-0.00027845,-0.00046981,0.00096929,
 -0.00354955,0.00188355,0.00994904,0.00131600,0.03343486,0.00065468,-0.
 00015851,-0.00029735,0.00000824,0.00014057,-0.00001093,-0.00000049,-0.
 00000745,0.00001858,-0.00007284,-0.00001761,-0.00000270,0.00002634,-0.
 00001925,0.00002660,-0.00000229,0.00000745,-0.00000749,-0.00000623,0.0
 0000144,0.00000625,-0.00000474,-0.00000153,0.00000105,-0.00000008,-0.0
 0000843,-0.00001530,0.00008172,0.00003438,-0.00002189,0.00000731,-0.00
 000470,-0.00000225,-0.00001729,-0.00000800,-0.00000106,-0.00010249,0.0
 0002225,-0.00003071,0.00001977,-0.00004527,0.00000269,0.00000738,-0.00
 000586,0.00005978,-0.00000091,-0.00000456,0.00000569,-0.00000407,0.000
 00781,-0.00000504,-0.00000274,0.00000390,-0.00000087,-0.00000475,-0.00
 000928,0.00000042,0.00000420,-0.00000737,-0.00000988,-0.00000242,0.000
 00308,-0.00000575,0.00000555,0.00000313,0.00000161,0.00000082,0.000001
 41,-0.00000094,0.00001511,0.00001031,-0.00001177,0.00008226,-0.0000215
 9,-0.00008832,-0.00002093,-0.00001385,0.00001594,0.00000428,0.00000388
 ,-0.00000088,0.00000845,0.00000214,-0.00000242,-0.00000517,-0.00000013
 ,-0.00001208,-0.00129073,-0.00089650,-0.00138309,0.00341899,0.00091134
 ,-0.00453001,0.08654702,0.03218751,-0.31756867,0.00120220,0.00223014,0
 .00130566,-0.00240778,0.00103068,-0.00058517,0.00638833,0.00055659,-0.
 01017372,-0.09477941,-0.03555033,0.33302221,0.00007626,0.00028035,-0.0
 0002015,0.00037310,-0.00020479,0.00000336,-0.00000256,0.00000352,0.000
 01241,-0.00007361,0.00013629,0.00017453,0.00000953,-0.00001055,-0.0001
 6085,-0.00004812,-0.00000681,-0.00005443,0.00000263,0.00002980,-0.0000
 0791,0.00001141,-0.00000697,0.00000138,-0.00001624,0.00000919,0.000019
 95,-0.00004314,-0.00000985,-0.00001649,-0.00000267,-0.00002069,-0.0000
 1055,-0.00000601,-0.00000354,0.00001823,0.00003852,0.00002915,-0.00002
 125,-0.00000104,-0.00000914,-0.00000983,0.00002356,0.00000805,0.000007
 47,-0.00000054,0.00000425,0.00000390,-0.00000258,-0.00000689,0.0000078
 0,-0.00000951,-0.00000270,0.00000399,0.00000518,0.00000109,0.00000158,
 0.00000718,0.00000516,0.00000122,0.00000019,-0.00000087,-0.00000494,0.
 00000056,0.00000131,-0.00001006,0.00000424,0.00000135,-0.00000391,0.00
 000965,-0.00006854,-0.00009923,0.00041887,-0.00061364,-0.00011960,0.00
 000084,0.00005474,0.00006506,-0.00000077,-0.00000781,-0.00000006,-0.00
 000311,-0.00000198,-0.00001381,0.00000110,-0.00000252,-0.00001022,-0.0
 0220146,0.00069105,0.00261599,0.00902337,-0.00562769,0.00769708,0.0007
 1673,-0.00078958,0.00142179,-0.18039911,0.07853652,-0.11302474,0.00095
 692,-0.00050122,0.00049710,0.00005981,0.00016945,-0.00000838,0.0001146
 6,-0.00009235,-0.00015445,0.19343363,0.00027178,0.00043244,-0.00003624
 ,-0.00012361,0.00026480,0.00000176,0.00001626,-0.00002196,-0.00000823,
 -0.00004019,-0.00013998,-0.00006693,0.00002109,0.00002073,0.00009127,0
 .00001253,0.00000680,-0.00002349,-0.00000338,-0.00000263,0.00001246,-0
 .00001662,0.00001044,0.00000302,-0.00001466,-0.00001109,-0.00003234,0.
 00007810,-0.00000170,-0.00001177,0.00000584,0.00005487,0.00002019,0.00
 000483,0.00000069,-0.00001015,-0.00004122,-0.00000853,0.00000805,0.000
 01407,-0.00001560,0.00002158,-0.00002951,-0.00001323,0.00003720,-0.000
 00306,-0.00000609,-0.00001201,0.00000039,0.00000590,-0.00000628,0.0000
 1569,0.00001015,-0.00001118,-0.00000715,-0.00000537,-0.00000062,-0.000
 01164,-0.00000741,-0.00000077,-0.00000105,0.00000043,0.00000313,-0.000
 00020,0.00000077,0.00001955,-0.00000247,-0.00000143,0.00000348,0.00001
 935,0.00007839,0.00003065,-0.00053078,-0.00090493,-0.00007944,-0.00000
 674,-0.00001929,-0.00002552,-0.00000169,0.00000609,0.00000330,0.000002
 53,-0.00000081,0.00000481,-0.00000010,0.00000047,-0.00000148,0.0001249
 3,0.00118753,-0.00028359,0.00141240,-0.00151922,0.00156632,0.00000477,
 -0.00013428,-0.00105513,0.07793068,-0.09299010,0.06596659,-0.00012002,
 -0.00008956,0.00039946,-0.00016814,0.00039320,-0.00001753,-0.00010929,
 -0.00016577,-0.00007827,-0.08560461,0.09593242,-0.00027805,0.00004618,
 0.00066872,0.00003491,-0.00003568,0.00028839,-0.00005298,0.00003287,-0
 .00003643,0.00036858,0.00000274,0.00012488,-0.00009250,0.00003581,-0.0
 0008299,-0.00002001,-0.00004879,-0.00007118,0.00000237,0.00002823,-0.0
 0000136,-0.00000545,0.00001206,0.00001409,-0.00001550,0.00001896,0.000
 02397,-0.00006760,-0.00003395,-0.00005707,-0.00000620,0.00001726,0.000
 00555,0.00000263,0.00000067,0.00002586,0.00007981,0.00002505,0.0000093
 0,-0.00000462,0.00000697,-0.00001525,-0.00000721,-0.00000656,-0.000002
 24,-0.00000577,0.00000460,0.00000784,0.00000228,-0.00001331,0.00001138
 ,-0.00000214,0.00000061,0.00000238,0.00000540,0.00000336,0.00000134,0.
 00000028,0.00000587,0.00000807,0.00000007,-0.00000158,-0.00000271,-0.0
 0000109,-0.00000073,-0.00000204,0.00000386,0.00000160,-0.00000278,-0.0
 0012328,-0.00011291,-0.00006132,-0.00040895,0.00004059,-0.00058936,0.0
 0001558,0.00008438,0.00007551,-0.00000385,-0.00001286,-0.00000147,-0.0
 0000598,-0.00000584,-0.00001522,0.00000740,0.00000512,0.00000637,0.005
 12702,-0.00135915,-0.00181385,-0.02202286,0.01325488,-0.02007133,-0.00
 190119,0.00026942,0.00164341,-0.11046762,0.06487828,-0.13979991,-0.001
 10142,0.00099195,-0.00264784,0.00122689,-0.00045008,0.00026341,-0.0000
 7918,-0.00010028,0.00037258,0.11900239,-0.07175816,0.15330938,0.000185
 87,-0.00008183,-0.00027131,-0.00014969,0.00015556,-0.00008530,0.000020
 61,-0.00003750,-0.00000012,-0.00006508,-0.00007573,-0.00014771,0.00001
 361,-0.00001659,0.00011726,0.00007271,0.00002366,0.00002193,-0.0000186
 3,-0.00002757,0.00001018,-0.00001738,0.00000479,0.00000718,0.00005078,
 0.00003812,-0.00001291,0.00005469,0.00009998,0.00001036,0.00008340,-0.
 00004814,-0.00002727,-0.00002694,-0.00002363,-0.00005996,-0.00017366,-
 0.00003182,-0.00001923,0.00000187,-0.00005245,0.00004811,0.00000770,0.
 00000534,0.00003539,0.00000853,-0.00000228,0.00001860,-0.00000027,0.00
 001008,-0.00001124,-0.00000969,-0.00000765,0.00000349,-0.00000428,-0.0
 0000192,0.00000235,0.00001518,0.00000298,-0.00001346,-0.00000059,0.000
 00227,-0.00000385,-0.00000074,-0.00000223,-0.00001690,-0.00000092,0.00
 000083,-0.00000175,0.00004310,0.00006606,0.00004739,-0.00082716,-0.000
 07157,-0.00131918,-0.00000931,-0.00003986,-0.00003183,-0.00000098,0.00
 000739,0.00000405,0.00000520,0.00000247,0.00000676,-0.00000354,0.00000
 400,-0.00000398,-0.00043279,0.00017656,-0.00055629,-0.00541878,0.01097
 249,0.00642825,0.00045219,-0.00041741,0.00223809,-0.06030790,0.0545573
 9,0.02059006,0.00006825,-0.00019453,0.00030856,0.00050539,0.00079262,0
 .00022698,-0.00089908,-0.00120392,-0.00003915,-0.00499452,0.02056540,0
 .00973034,0.06435876,0.00009514,0.00038779,0.00042568,-0.00024798,0.00
 032635,0.00023711,-0.00002763,-0.00001006,-0.00003798,0.00012230,-0.00
 030471,-0.00006654,-0.00002022,0.00008032,0.00010084,0.00000620,-0.000
 02145,-0.00003859,-0.00001151,0.00000211,0.00000959,-0.00002113,0.0000
 2286,0.00001318,0.00003826,0.00002688,0.00003653,-0.00001408,-0.000004
 01,-0.00005574,0.00002107,-0.00004222,-0.00001329,0.00001419,-0.000003
 84,-0.00001189,-0.00003804,0.00001089,0.00003345,0.00000464,-0.0000088
 0,-0.00000754,-0.00000960,-0.00000867,-0.00002466,-0.00000035,0.000000
 52,0.00000626,0.00000333,-0.00000160,-0.00000190,-0.00000392,-0.000001
 47,0.00000412,0.00000042,-0.00000258,-0.00000032,0.00000141,0.00000541
 ,0.00000300,0.00000051,-0.00000138,0.00000189,-0.00000466,0.00000007,-
 0.00000036,-0.00000042,-0.00000116,0.00000085,-0.00003508,0.00014382,0
 .00003405,-0.00065641,-0.00035835,-0.00035907,0.00000689,-0.00003014,-
 0.00001591,0.00000694,0.00001343,0.00000916,-0.00000524,0.00000501,0.0
 0000310,0.00000266,-0.00000003,0.00001190,0.00211557,-0.00067484,-0.00
 007086,0.00001805,0.00691344,0.00034078,-0.00092335,0.00018603,0.00005
 814,0.05409701,-0.25253325,-0.08506564,-0.00066907,0.00018269,-0.00006
 784,-0.00017152,0.00006783,-0.00001560,-0.00018885,-0.00026120,-0.0000
 4088,0.00181610,-0.01114337,-0.00453901,-0.06034192,0.27418605,-0.0008
 2837,0.00094933,0.00059141,-0.00046508,0.00030867,-0.00003662,0.000018
 32,0.00000477,-0.00001512,0.00010260,-0.00032062,-0.00011790,-0.000008
 34,0.00009754,0.00013537,0.00005088,0.00001430,-0.00000421,0.00001615,
 -0.00002049,0.00001483,-0.00002198,0.00001235,0.00001301,-0.00009199,-
 0.00006302,-0.00010352,0.00014698,-0.00010166,0.00004565,-0.00006581,0
 .00018289,0.00010028,0.00004838,0.00003183,0.00000160,0.00004166,-0.00
 000786,0.00004395,0.00001715,0.00001508,-0.00000296,-0.00008385,-0.000
 04078,0.00002408,-0.00001611,-0.00000609,-0.00003531,0.00000503,-0.000
 00019,-0.00000400,0.00003483,0.00003010,-0.00002795,-0.00001085,-0.000
 01117,-0.00000380,-0.00003908,-0.00001370,0.00001417,-0.00000097,-0.00
 000306,0.00001272,-0.00000525,0.00000463,0.00006086,-0.00000520,-0.000
 00665,0.00001019,-0.00003509,0.00019918,0.00010120,-0.00155854,-0.0006
 5236,-0.00098775,0.00001696,-0.00005614,-0.00006448,0.00000835,0.00001
 777,0.00000704,-0.00000617,0.00000539,0.00001433,0.00000106,-0.0000041
 9,0.00002173,0.00273253,-0.00141495,0.00032525,0.00940489,-0.02770483,
 -0.01196009,-0.00068027,0.00113974,-0.00376568,0.02151047,-0.08740661,
 -0.08375872,-0.00075823,0.00063282,0.00029967,-0.00022394,-0.00085996,
 -0.00010021,0.00162546,0.00155830,0.00045496,-0.00333466,0.01755045,0.
 00788579,-0.02656036,0.09533871,0.09088162,0.00049675,0.00046378,-0.00
 038635,0.00018117,0.00003798,-0.00010011,0.00002688,-0.00001888,0.0000
 1716,-0.00011949,-0.00009835,-0.00002773,0.00003322,0.00003795,-0.0000
 1373,-0.00002696,-0.00000881,-0.00000421,0.00000401,0.00000050,0.00000
 333,0.00000376,0.00000136,-0.00000557,-0.00000378,-0.00000580,0.000001
 60,-0.00002205,-0.00001566,0.00002222,-0.00000548,0.00000065,0.0000013
 1,0.00001114,0.00000546,0.00000265,0.00004334,-0.00001696,0.00001127,-
 0.00001056,0.00002966,-0.00000314,0.00000153,0.00000898,-0.00002304,-0
 .00000308,-0.00000454,-0.00001050,-0.00000204,0.00000072,0.00000096,0.
 00000803,-0.00000454,0.00000328,-0.00000004,0.00000563,-0.00000145,-0.
 00000086,-0.00000500,-0.00000185,-0.00000047,0.00000176,0.00000406,0.0
 0000356,-0.00000276,-0.00000247,-0.00000204,0.00000140,0.00000093,0.00
 004474,0.00012308,-0.00000259,0.00020983,-0.00017993,-0.00065519,-0.00
 001849,-0.00004598,-0.00000579,0.00000380,0.00001288,0.00000758,0.0000
 0267,0.00000478,0.00000252,-0.00000094,0.00000140,-0.00000733,-0.00184
 829,0.00101261,-0.00035415,-0.00985249,-0.00408088,0.00357104,0.000850
 91,-0.00112097,0.00200584,-0.21640872,-0.12153218,0.00385934,0.0006116
 1,-0.00024053,0.00024333,-0.00009177,-0.00085286,-0.00016692,0.0000540
 1,0.00115380,0.00043631,-0.01748292,-0.01366449,0.00106364,0.00741409,
 0.00502033,-0.00098152,0.23589538,0.00055427,0.00055867,-0.00009829,0.
 00052376,-0.00026387,0.00001143,0.00001663,0.00000244,0.00003246,-0.00
 004729,0.00016990,0.00021398,0.00000651,-0.00000601,-0.00020079,-0.000
 08722,-0.00000472,-0.00007423,0.00001293,0.00004775,-0.00000402,0.0000
 1215,-0.00000313,-0.00000456,-0.00006997,-0.00001458,0.00001957,-0.000
 06487,-0.00008597,-0.00004630,-0.00004597,0.00005218,0.00000997,0.0000
 2354,0.00001557,0.00004876,0.00015541,0.00002968,0.00001621,-0.0000036
 9,0.00003761,-0.00002755,-0.00000102,0.00000286,-0.00001207,-0.0000092
 5,-0.00000165,-0.00001382,-0.00000338,-0.00000948,0.00001279,0.0000112
 0,0.00000198,0.00000031,0.00000427,0.00000517,-0.00000091,-0.00000578,
 -0.00000312,0.00000747,-0.00000052,0.00000003,0.00000096,0.00000361,-0
 .00000061,0.00000485,0.00000189,0.00000209,-0.00000054,0.00001323,-0.0
 0010265,-0.00010827,0.00039398,-0.00183518,0.00090614,-0.00000840,0.00
 007434,0.00007262,-0.00000677,-0.00001316,-0.00000459,-0.00000023,-0.0
 0000790,-0.00001546,0.00000279,-0.00000094,-0.00001581,-0.00216175,0.0
 0070501,0.00026324,0.00041027,0.00053581,0.00070836,0.00062020,-0.0001
 8214,-0.00004910,-0.12183097,-0.13422344,0.00503263,0.00068149,-0.0001
 9218,-0.00026739,0.00007009,0.00028027,0.00002361,-0.00015147,-0.00024
 640,-0.00025863,0.01181537,0.00879622,-0.00128858,-0.02480944,-0.01714
 835,0.00060050,0.13397440,0.14302792,-0.00113929,-0.00014513,0.0002126
 2,-0.00038571,0.00016886,-0.00016438,-0.00000690,0.00001987,-0.0000033
 9,0.00007192,0.00012458,-0.00010556,-0.00001409,-0.00006168,0.00012304
 ,0.00004837,-0.00002868,0.00005310,-0.00000043,-0.00002798,0.00000441,
 -0.00000807,-0.00000697,-0.00000257,0.00002044,-0.00000363,-0.00001187
 ,0.00005311,0.00001169,-0.00001192,-0.00001034,0.00001894,0.00000646,0
 .00000848,0.00000378,-0.00000700,-0.00005349,-0.00000175,0.00001656,0.
 00000886,-0.00000887,-0.00000726,-0.00001658,-0.00001497,-0.00000253,0
 .00000269,0.00000105,0.00000137,0.00000333,0.00000633,-0.00000732,-0.0
 0000138,0.00000666,-0.00000516,-0.00000334,-0.00000635,-0.00000120,-0.
 00000741,-0.00000099,0.00000236,0.00000052,-0.00000108,0.00000237,-0.0
 0000403,0.00000268,0.00001396,-0.00000241,-0.00000332,0.00000328,-0.00
 001641,-0.00007331,0.00009989,-0.00023327,0.00114710,-0.00020122,0.000
 01136,-0.00003466,-0.00008086,-0.00000232,-0.00000371,-0.00000931,0.00
 000208,-0.00000122,0.00001723,-0.00000131,-0.00000119,0.00001573,0.001
 95828,-0.00056292,0.00050817,0.02781015,0.01801083,-0.00091005,-0.0003
 1888,0.00098359,-0.00376418,0.00602360,0.00615471,-0.04725811,-0.00068
 573,-0.00013526,0.00011241,0.00046225,0.00078930,0.00028854,0.00007387
 ,-0.00237254,-0.00052570,-0.01446971,-0.01222411,0.00052614,-0.0106735
 0,-0.00623469,-0.00007139,-0.00850473,-0.00549495,0.05114333||0.000001
 00,-0.00000048,0.00000030,-0.00000027,0.00000111,0.00000071,0.00000034
 ,0.00000096,0.00000169,-0.00000098,0.00000084,0.00000140,-0.00000160,0
 .00000210,0.00000088,0.00000057,0.00000037,0.00000186,0.00000046,0.000
 00140,0.00000229,0.00000159,0.00000052,0.00000218,0.00000110,0.0000001
 7,0.00000109,0.00000190,-0.00000092,0.00000096,0.00000253,-0.00000110,
 0.00000101,0.00000036,0.00000040,0.00000071,0.00000181,-0.00000113,0.0
 0000028,0.00000242,-0.00000174,0.00000007,0.00000089,-0.00000041,0.000
 00047,-0.00000047,0.00000107,0.00000074,-0.00000105,0.00000164,0.00000
 125,0.00000060,-0.00000057,-0.00000024,0.00000104,-0.00000110,-0.00000
 053,-0.00000107,0.00000096,0.00000051,-0.00000166,0.00000163,0.0000005
 0,-0.00000038,0.00000024,-0.00000001,-0.00000068,0.00000025,-0.0000003
 7,-0.00000151,0.00000175,0.00000014,0.00000092,-0.00000043,0.00000023,
 -0.00000292,0.00000191,-0.00000021,-0.00000312,0.00000191,-0.00000063,
 -0.00000300,0.00000269,0.00000053,-0.00000297,0.00000178,-0.00000063,-
 0.00000053,-0.00000053,-0.00000007,0.00000037,-0.00000147,-0.00000179,
 -0.00000018,-0.00000185,-0.00000258,0.00000120,-0.00000190,-0.00000138
 ,-0.00000070,-0.00000012,-0.00000140,0.00000024,-0.00000250,-0.0000032
 7,-0.00000061,-0.00000148,-0.00000278,0.00000142,-0.00000253,-0.000002
 08,0.00000195,-0.00000198,-0.00000073,0.00000099,-0.00000146,-0.000001
 11|||@


 A true friend is someone who is there for
 you when he'd rather be anywhere else.
                               -- Len Wein
 Job cpu time:       0 days  0 hours 26 minutes 57.0 seconds.
 File lengths (MBytes):  RWF=    641 Int=      0 D2E=      0 Chk=     14 Scr=      1
 Normal termination of Gaussian 09 at Wed Feb 07 15:31:08 2024.
