 Entering Link 1 = C:\G09W\l1.exe PID=    112988.
  
 Copyright (c) 1988,1990,1992,1993,1995,1998,2003,2009,2013,
            Gaussian, Inc.  All Rights Reserved.
  
 This is part of the Gaussian(R) 09 program.  It is based on
 the Gaussian(R) 03 system (copyright 2003, Gaussian, Inc.),
 the Gaussian(R) 98 system (copyright 1998, Gaussian, Inc.),
 the Gaussian(R) 94 system (copyright 1995, Gaussian, Inc.),
 the Gaussian 92(TM) system (copyright 1992, Gaussian, Inc.),
 the Gaussian 90(TM) system (copyright 1990, Gaussian, Inc.),
 the Gaussian 88(TM) system (copyright 1988, Gaussian, Inc.),
 the Gaussian 86(TM) system (copyright 1986, Carnegie Mellon
 University), and the Gaussian 82(TM) system (copyright 1983,
 Carnegie Mellon University). Gaussian is a federally registered
 trademark of Gaussian, Inc.
  
 This software contains proprietary and confidential information,
 including trade secrets, belonging to Gaussian, Inc.
  
 This software is provided under written license and may be
 used, copied, transmitted, or stored only in accord with that
 written license.
  
 The following legend is applicable only to US Government
 contracts under FAR:
  
                    RESTRICTED RIGHTS LEGEND
  
 Use, reproduction and disclosure by the US Government is
 subject to restrictions as set forth in subparagraphs (a)
 and (c) of the Commercial Computer Software - Restricted
 Rights clause in FAR 52.227-19.
  
 Gaussian, Inc.
 340 Quinnipiac St., Bldg. 40, Wallingford CT 06492
  
  
 ---------------------------------------------------------------
 Warning -- This program may not be used in any manner that
 competes with the business of Gaussian, Inc. or will provide
 assistance to any competitor of Gaussian, Inc.  The licensee
 of this program is prohibited from giving any competitor of
 Gaussian, Inc. access to this program.  By using this program,
 the user acknowledges that Gaussian, Inc. is engaged in the
 business of creating and licensing software in the field of
 computational chemistry and represents and warrants to the
 licensee that it is not a competitor of Gaussian, Inc. and that
 it will not use this program in any manner prohibited above.
 ---------------------------------------------------------------
  

 Cite this work as:
 Gaussian 09, Revision D.01,
 M. J. Frisch, G. W. Trucks, H. B. Schlegel, G. E. Scuseria, 
 M. A. Robb, J. R. Cheeseman, G. Scalmani, V. Barone, B. Mennucci, 
 G. A. Petersson, H. Nakatsuji, M. Caricato, X. Li, H. P. Hratchian, 
 A. F. Izmaylov, J. Bloino, G. Zheng, J. L. Sonnenberg, M. Hada, 
 M. Ehara, K. Toyota, R. Fukuda, J. Hasegawa, M. Ishida, T. Nakajima, 
 Y. Honda, O. Kitao, H. Nakai, T. Vreven, J. A. Montgomery, Jr., 
 J. E. Peralta, F. Ogliaro, M. Bearpark, J. J. Heyd, E. Brothers, 
 K. N. Kudin, V. N. Staroverov, T. Keith, R. Kobayashi, J. Normand, 
 K. Raghavachari, A. Rendell, J. C. Burant, S. S. Iyengar, J. Tomasi, 
 M. Cossi, N. Rega, J. M. Millam, M. Klene, J. E. Knox, J. B. Cross, 
 V. Bakken, C. Adamo, J. Jaramillo, R. Gomperts, R. E. Stratmann, 
 O. Yazyev, A. J. Austin, R. Cammi, C. Pomelli, J. W. Ochterski, 
 R. L. Martin, K. Morokuma, V. G. Zakrzewski, G. A. Voth, 
 P. Salvador, J. J. Dannenberg, S. Dapprich, A. D. Daniels, 
 O. Farkas, J. B. Foresman, J. V. Ortiz, J. Cioslowski, 
 and D. J. Fox, Gaussian, Inc., Wallingford CT, 2013.
 
 ******************************************
 Gaussian 09:  IA32W-G09RevD.01 24-Apr-2013
                07-Feb-2024 
 ******************************************
 %chk=MATrp_OptFreq.chk
 %nprocshared=8
 Will use up to    8 processors via shared memory.
 ---------------------------------------------------------------
 #p opt=tight freq b3lyp/6-31g(d,p) guess=save geom=connectivity
 ---------------------------------------------------------------
 1/7=10,14=-1,18=20,19=15,26=3,38=1,57=2/1,3;
 2/9=110,12=2,17=6,18=5,40=1/2;
 3/5=1,6=6,7=101,11=2,16=1,25=1,30=1,71=1,74=-5/1,2,3;
 4//1;
 5/5=2,38=5/2;
 6/7=2,8=2,9=2,10=2,28=1/1;
 7//1,2,3,16;
 1/7=10,14=-1,18=20,19=15,26=3/3(2);
 2/9=110/2;
 99//99;
 2/9=110/2;
 3/5=1,6=6,7=101,11=2,16=1,25=1,30=1,71=1,74=-5/1,2,3;
 4/5=5,16=3,69=1/1;
 5/5=2,38=5/2;
 7//1,2,3,16;
 1/7=10,14=-1,18=20,19=15,26=3/3(-5);
 2/9=110/2;
 6/7=2,8=2,9=2,10=2,19=2,28=1/1;
 99/9=1/99;
 Leave Link    1 at Wed Feb 07 21:06:21 2024, MaxMem=           0 cpu:         0.0
 (Enter C:\G09W\l101.exe)
 --------------------------------
 MATrp OptFreq tight B3LYP/6-31Gd
 --------------------------------
 Symbolic Z-matrix:
 Charge =  0 Multiplicity = 1
 N                    -2.27914   1.54938   0.0073 
 C                    -1.26673   2.08008  -0.88435 
 H                    -1.19465   1.40379  -1.74126 
 C                     0.10842   2.1259   -0.23426 
 O                     1.12801   2.33436  -0.85552 
 C                    -1.637     3.48818  -1.45452 
 H                    -0.83454   3.78505  -2.13917 
 H                    -2.53804   3.33477  -2.05636 
 C                    -1.8777    4.54693  -0.4188 
 C                    -3.0977    4.88494   0.11492 
 H                    -4.07889   4.49273  -0.11695 
 C                    -0.90405   5.39761   0.23007 
 N                    -2.94574   5.88229   1.05959 
 H                    -3.69889   6.33766   1.55079 
 C                    -1.61178   6.22509   1.14655 
 C                     0.49028   5.55718   0.11678 
 H                     1.06098   4.94272  -0.57326 
 C                    -0.97356   7.18323   1.94125 
 H                    -1.53367   7.80601   2.63434 
 C                     1.12764   6.5085    0.90473 
 H                     2.20291   6.64083   0.8197 
 C                     0.40386   7.31286   1.80902 
 H                     0.93048   8.04943   2.40977 
 O                     0.06513   1.96078   1.10446 
 H                    -2.15803   1.71368   0.99459 
 C                    -0.7843    2.88011   1.81749 
 H                    -0.62598   2.66342   2.87413 
 H                    -0.50839   3.91121   1.58618 
 H                    -1.82788   2.70907   1.54192 
 C                    -3.40027   0.93462  -0.47715 
 C                    -4.38152   0.44668   0.56222 
 C                    -5.48878  -0.15609   0.116 
 C                    -4.09309   0.64546   2.03116 
 O                    -3.58514   0.78937  -1.68499 
 H                    -6.24426  -0.53895   0.7966 
 H                    -5.64983  -0.27732  -0.95002 
 H                    -4.8991    0.23172   2.64384 
 H                    -3.16019   0.1513    2.33346 
 H                    -3.99651   1.70937   2.28823 
 
 NAtoms=     39 NQM=       39 NQMF=       0 NMMI=      0 NMMIF=      0
                NMic=       0 NMicF=      0.
                    Isotopes and Nuclear Properties:
 (Nuclear quadrupole moments (NQMom) in fm**2, nuclear magnetic moments (NMagM)
  in nuclear magnetons)

  Atom         1           2           3           4           5           6           7           8           9          10
 IAtWgt=          14          12           1          12          16          12           1           1          12          12
 AtmWgt=  14.0030740  12.0000000   1.0078250  12.0000000  15.9949146  12.0000000   1.0078250   1.0078250  12.0000000  12.0000000
 NucSpn=           2           0           1           0           0           0           1           1           0           0
 AtZEff=   0.0000000   0.0000000   0.0000000   0.0000000   0.0000000   0.0000000   0.0000000   0.0000000   0.0000000   0.0000000
 NQMom=    2.0440000   0.0000000   0.0000000   0.0000000   0.0000000   0.0000000   0.0000000   0.0000000   0.0000000   0.0000000
 NMagM=    0.4037610   0.0000000   2.7928460   0.0000000   0.0000000   0.0000000   2.7928460   2.7928460   0.0000000   0.0000000
 AtZNuc=   7.0000000   6.0000000   1.0000000   6.0000000   8.0000000   6.0000000   1.0000000   1.0000000   6.0000000   6.0000000

  Atom        11          12          13          14          15          16          17          18          19          20
 IAtWgt=           1          12          14           1          12          12           1          12           1          12
 AtmWgt=   1.0078250  12.0000000  14.0030740   1.0078250  12.0000000  12.0000000   1.0078250  12.0000000   1.0078250  12.0000000
 NucSpn=           1           0           2           1           0           0           1           0           1           0
 AtZEff=   0.0000000   0.0000000   0.0000000   0.0000000   0.0000000   0.0000000   0.0000000   0.0000000   0.0000000   0.0000000
 NQMom=    0.0000000   0.0000000   2.0440000   0.0000000   0.0000000   0.0000000   0.0000000   0.0000000   0.0000000   0.0000000
 NMagM=    2.7928460   0.0000000   0.4037610   2.7928460   0.0000000   0.0000000   2.7928460   0.0000000   2.7928460   0.0000000
 AtZNuc=   1.0000000   6.0000000   7.0000000   1.0000000   6.0000000   6.0000000   1.0000000   6.0000000   1.0000000   6.0000000

  Atom        21          22          23          24          25          26          27          28          29          30
 IAtWgt=           1          12           1          16           1          12           1           1           1          12
 AtmWgt=   1.0078250  12.0000000   1.0078250  15.9949146   1.0078250  12.0000000   1.0078250   1.0078250   1.0078250  12.0000000
 NucSpn=           1           0           1           0           1           0           1           1           1           0
 AtZEff=   0.0000000   0.0000000   0.0000000   0.0000000   0.0000000   0.0000000   0.0000000   0.0000000   0.0000000   0.0000000
 NQMom=    0.0000000   0.0000000   0.0000000   0.0000000   0.0000000   0.0000000   0.0000000   0.0000000   0.0000000   0.0000000
 NMagM=    2.7928460   0.0000000   2.7928460   0.0000000   2.7928460   0.0000000   2.7928460   2.7928460   2.7928460   0.0000000
 AtZNuc=   1.0000000   6.0000000   1.0000000   8.0000000   1.0000000   6.0000000   1.0000000   1.0000000   1.0000000   6.0000000

  Atom        31          32          33          34          35          36          37          38          39
 IAtWgt=          12          12          12          16           1           1           1           1           1
 AtmWgt=  12.0000000  12.0000000  12.0000000  15.9949146   1.0078250   1.0078250   1.0078250   1.0078250   1.0078250
 NucSpn=           0           0           0           0           1           1           1           1           1
 AtZEff=   0.0000000   0.0000000   0.0000000   0.0000000   0.0000000   0.0000000   0.0000000   0.0000000   0.0000000
 NQMom=    0.0000000   0.0000000   0.0000000   0.0000000   0.0000000   0.0000000   0.0000000   0.0000000   0.0000000
 NMagM=    0.0000000   0.0000000   0.0000000   0.0000000   2.7928460   2.7928460   2.7928460   2.7928460   2.7928460
 AtZNuc=   6.0000000   6.0000000   6.0000000   8.0000000   1.0000000   1.0000000   1.0000000   1.0000000   1.0000000
 Leave Link  101 at Wed Feb 07 21:06:21 2024, MaxMem=    33554432 cpu:         0.0
 (Enter C:\G09W\l103.exe)

 GradGradGradGradGradGradGradGradGradGradGradGradGradGradGradGradGradGrad
 Berny optimization.
 Initialization pass.
                           ----------------------------
                           !    Initial Parameters    !
                           ! (Angstroms and Degrees)  !
 --------------------------                            --------------------------
 ! Name  Definition              Value          Derivative Info.                !
 --------------------------------------------------------------------------------
 ! R1    R(1,2)                  1.4497         estimate D2E/DX2                !
 ! R2    R(1,25)                 1.0082         estimate D2E/DX2                !
 ! R3    R(1,30)                 1.3673         estimate D2E/DX2                !
 ! R4    R(2,3)                  1.094          estimate D2E/DX2                !
 ! R5    R(2,4)                  1.5218         estimate D2E/DX2                !
 ! R6    R(2,6)                  1.5636         estimate D2E/DX2                !
 ! R7    R(4,5)                  1.212          estimate D2E/DX2                !
 ! R8    R(4,24)                 1.3496         estimate D2E/DX2                !
 ! R9    R(6,7)                  1.0958         estimate D2E/DX2                !
 ! R10   R(6,8)                  1.0944         estimate D2E/DX2                !
 ! R11   R(6,9)                  1.5005         estimate D2E/DX2                !
 ! R12   R(9,10)                 1.3739         estimate D2E/DX2                !
 ! R13   R(9,12)                 1.4466         estimate D2E/DX2                !
 ! R14   R(10,11)                1.0818         estimate D2E/DX2                !
 ! R15   R(10,13)                1.3821         estimate D2E/DX2                !
 ! R16   R(12,15)                1.4232         estimate D2E/DX2                !
 ! R17   R(12,16)                1.408          estimate D2E/DX2                !
 ! R18   R(13,14)                1.0079         estimate D2E/DX2                !
 ! R19   R(13,15)                1.38           estimate D2E/DX2                !
 ! R20   R(15,18)                1.3989         estimate D2E/DX2                !
 ! R21   R(16,17)                1.086          estimate D2E/DX2                !
 ! R22   R(16,20)                1.39           estimate D2E/DX2                !
 ! R23   R(18,19)                1.0872         estimate D2E/DX2                !
 ! R24   R(18,22)                1.3898         estimate D2E/DX2                !
 ! R25   R(20,21)                1.0867         estimate D2E/DX2                !
 ! R26   R(20,22)                1.4102         estimate D2E/DX2                !
 ! R27   R(22,23)                1.0866         estimate D2E/DX2                !
 ! R28   R(24,26)                1.4405         estimate D2E/DX2                !
 ! R29   R(26,27)                1.0902         estimate D2E/DX2                !
 ! R30   R(26,28)                1.0922         estimate D2E/DX2                !
 ! R31   R(26,29)                1.0928         estimate D2E/DX2                !
 ! R32   R(30,31)                1.5104         estimate D2E/DX2                !
 ! R33   R(30,34)                1.2305         estimate D2E/DX2                !
 ! R34   R(31,32)                1.3373         estimate D2E/DX2                !
 ! R35   R(31,33)                1.5101         estimate D2E/DX2                !
 ! R36   R(32,35)                1.0865         estimate D2E/DX2                !
 ! R37   R(32,36)                1.0849         estimate D2E/DX2                !
 ! R38   R(33,37)                1.0937         estimate D2E/DX2                !
 ! R39   R(33,38)                1.0981         estimate D2E/DX2                !
 ! R40   R(33,39)                1.0988         estimate D2E/DX2                !
 ! A1    A(2,1,25)             117.308          estimate D2E/DX2                !
 ! A2    A(2,1,30)             121.2844         estimate D2E/DX2                !
 ! A3    A(25,1,30)            121.2475         estimate D2E/DX2                !
 ! A4    A(1,2,3)              107.5463         estimate D2E/DX2                !
 ! A5    A(1,2,4)              112.2934         estimate D2E/DX2                !
 ! A6    A(1,2,6)              112.8654         estimate D2E/DX2                !
 ! A7    A(3,2,4)              107.0783         estimate D2E/DX2                !
 ! A8    A(3,2,6)              106.6588         estimate D2E/DX2                !
 ! A9    A(4,2,6)              110.0381         estimate D2E/DX2                !
 ! A10   A(2,4,5)              123.1202         estimate D2E/DX2                !
 ! A11   A(2,4,24)             113.0226         estimate D2E/DX2                !
 ! A12   A(5,4,24)             123.8134         estimate D2E/DX2                !
 ! A13   A(2,6,7)              107.3605         estimate D2E/DX2                !
 ! A14   A(2,6,8)              105.6208         estimate D2E/DX2                !
 ! A15   A(2,6,9)              114.9414         estimate D2E/DX2                !
 ! A16   A(7,6,8)              107.2966         estimate D2E/DX2                !
 ! A17   A(7,6,9)              110.9504         estimate D2E/DX2                !
 ! A18   A(8,6,9)              110.2691         estimate D2E/DX2                !
 ! A19   A(6,9,10)             125.7452         estimate D2E/DX2                !
 ! A20   A(6,9,12)             128.0651         estimate D2E/DX2                !
 ! A21   A(10,9,12)            106.1853         estimate D2E/DX2                !
 ! A22   A(9,10,11)            129.2678         estimate D2E/DX2                !
 ! A23   A(9,10,13)            110.2085         estimate D2E/DX2                !
 ! A24   A(11,10,13)           120.5198         estimate D2E/DX2                !
 ! A25   A(9,12,15)            107.2204         estimate D2E/DX2                !
 ! A26   A(9,12,16)            134.1927         estimate D2E/DX2                !
 ! A27   A(15,12,16)           118.5792         estimate D2E/DX2                !
 ! A28   A(10,13,14)           125.2381         estimate D2E/DX2                !
 ! A29   A(10,13,15)           109.1835         estimate D2E/DX2                !
 ! A30   A(14,13,15)           125.4048         estimate D2E/DX2                !
 ! A31   A(12,15,13)           107.1977         estimate D2E/DX2                !
 ! A32   A(12,15,18)           122.4915         estimate D2E/DX2                !
 ! A33   A(13,15,18)           130.3106         estimate D2E/DX2                !
 ! A34   A(12,16,17)           120.4915         estimate D2E/DX2                !
 ! A35   A(12,16,20)           119.0802         estimate D2E/DX2                !
 ! A36   A(17,16,20)           120.4278         estimate D2E/DX2                !
 ! A37   A(15,18,19)           121.2967         estimate D2E/DX2                !
 ! A38   A(15,18,22)           117.5164         estimate D2E/DX2                !
 ! A39   A(19,18,22)           121.1866         estimate D2E/DX2                !
 ! A40   A(16,20,21)           119.5178         estimate D2E/DX2                !
 ! A41   A(16,20,22)           121.2351         estimate D2E/DX2                !
 ! A42   A(21,20,22)           119.2461         estimate D2E/DX2                !
 ! A43   A(18,22,20)           121.0968         estimate D2E/DX2                !
 ! A44   A(18,22,23)           119.4026         estimate D2E/DX2                !
 ! A45   A(20,22,23)           119.5002         estimate D2E/DX2                !
 ! A46   A(4,24,26)            115.5837         estimate D2E/DX2                !
 ! A47   A(24,26,27)           105.5016         estimate D2E/DX2                !
 ! A48   A(24,26,28)           110.4092         estimate D2E/DX2                !
 ! A49   A(24,26,29)           109.7796         estimate D2E/DX2                !
 ! A50   A(27,26,28)           110.8694         estimate D2E/DX2                !
 ! A51   A(27,26,29)           110.6077         estimate D2E/DX2                !
 ! A52   A(28,26,29)           109.6091         estimate D2E/DX2                !
 ! A53   A(1,30,31)            115.7299         estimate D2E/DX2                !
 ! A54   A(1,30,34)            121.6036         estimate D2E/DX2                !
 ! A55   A(31,30,34)           122.6661         estimate D2E/DX2                !
 ! A56   A(30,31,32)           116.994          estimate D2E/DX2                !
 ! A57   A(30,31,33)           120.1837         estimate D2E/DX2                !
 ! A58   A(32,31,33)           122.8222         estimate D2E/DX2                !
 ! A59   A(31,32,35)           121.7021         estimate D2E/DX2                !
 ! A60   A(31,32,36)           120.0743         estimate D2E/DX2                !
 ! A61   A(35,32,36)           118.2232         estimate D2E/DX2                !
 ! A62   A(31,33,37)           110.7538         estimate D2E/DX2                !
 ! A63   A(31,33,38)           111.7655         estimate D2E/DX2                !
 ! A64   A(31,33,39)           111.8284         estimate D2E/DX2                !
 ! A65   A(37,33,38)           107.555          estimate D2E/DX2                !
 ! A66   A(37,33,39)           107.4571         estimate D2E/DX2                !
 ! A67   A(38,33,39)           107.256          estimate D2E/DX2                !
 ! D1    D(25,1,2,3)           148.3968         estimate D2E/DX2                !
 ! D2    D(25,1,2,4)            30.8465         estimate D2E/DX2                !
 ! D3    D(25,1,2,6)           -94.2394         estimate D2E/DX2                !
 ! D4    D(30,1,2,3)           -36.1475         estimate D2E/DX2                !
 ! D5    D(30,1,2,4)          -153.6978         estimate D2E/DX2                !
 ! D6    D(30,1,2,6)            81.2163         estimate D2E/DX2                !
 ! D7    D(2,1,30,31)         -179.1405         estimate D2E/DX2                !
 ! D8    D(2,1,30,34)            1.112          estimate D2E/DX2                !
 ! D9    D(25,1,30,31)          -3.8639         estimate D2E/DX2                !
 ! D10   D(25,1,30,34)         176.3886         estimate D2E/DX2                !
 ! D11   D(1,2,4,5)            168.1583         estimate D2E/DX2                !
 ! D12   D(1,2,4,24)           -14.165          estimate D2E/DX2                !
 ! D13   D(3,2,4,5)             50.33           estimate D2E/DX2                !
 ! D14   D(3,2,4,24)          -131.9933         estimate D2E/DX2                !
 ! D15   D(6,2,4,5)            -65.2183         estimate D2E/DX2                !
 ! D16   D(6,2,4,24)           112.4584         estimate D2E/DX2                !
 ! D17   D(1,2,6,7)           -177.9941         estimate D2E/DX2                !
 ! D18   D(1,2,6,8)            -63.735          estimate D2E/DX2                !
 ! D19   D(1,2,6,9)             58.0506         estimate D2E/DX2                !
 ! D20   D(3,2,6,7)            -60.1085         estimate D2E/DX2                !
 ! D21   D(3,2,6,8)             54.1506         estimate D2E/DX2                !
 ! D22   D(3,2,6,9)            175.9362         estimate D2E/DX2                !
 ! D23   D(4,2,6,7)             55.7043         estimate D2E/DX2                !
 ! D24   D(4,2,6,8)            169.9634         estimate D2E/DX2                !
 ! D25   D(4,2,6,9)            -68.251          estimate D2E/DX2                !
 ! D26   D(2,4,24,26)          -55.4252         estimate D2E/DX2                !
 ! D27   D(5,4,24,26)          122.2328         estimate D2E/DX2                !
 ! D28   D(2,6,9,10)           -93.415          estimate D2E/DX2                !
 ! D29   D(2,6,9,12)            85.7122         estimate D2E/DX2                !
 ! D30   D(7,6,9,10)           144.5507         estimate D2E/DX2                !
 ! D31   D(7,6,9,12)           -36.3221         estimate D2E/DX2                !
 ! D32   D(8,6,9,10)            25.8148         estimate D2E/DX2                !
 ! D33   D(8,6,9,12)          -155.058          estimate D2E/DX2                !
 ! D34   D(6,9,10,11)           -1.8966         estimate D2E/DX2                !
 ! D35   D(6,9,10,13)          178.8406         estimate D2E/DX2                !
 ! D36   D(12,9,10,11)         178.8189         estimate D2E/DX2                !
 ! D37   D(12,9,10,13)          -0.4439         estimate D2E/DX2                !
 ! D38   D(6,9,12,15)         -179.2265         estimate D2E/DX2                !
 ! D39   D(6,9,12,16)            1.8333         estimate D2E/DX2                !
 ! D40   D(10,9,12,15)           0.0359         estimate D2E/DX2                !
 ! D41   D(10,9,12,16)        -178.9043         estimate D2E/DX2                !
 ! D42   D(9,10,13,14)         176.1204         estimate D2E/DX2                !
 ! D43   D(9,10,13,15)           0.7026         estimate D2E/DX2                !
 ! D44   D(11,10,13,14)         -3.2171         estimate D2E/DX2                !
 ! D45   D(11,10,13,15)       -178.6349         estimate D2E/DX2                !
 ! D46   D(9,12,15,13)           0.3785         estimate D2E/DX2                !
 ! D47   D(9,12,15,18)        -179.4726         estimate D2E/DX2                !
 ! D48   D(16,12,15,13)        179.5131         estimate D2E/DX2                !
 ! D49   D(16,12,15,18)         -0.3379         estimate D2E/DX2                !
 ! D50   D(9,12,16,17)          -1.1117         estimate D2E/DX2                !
 ! D51   D(9,12,16,20)         179.1598         estimate D2E/DX2                !
 ! D52   D(15,12,16,17)       -179.9589         estimate D2E/DX2                !
 ! D53   D(15,12,16,20)          0.3126         estimate D2E/DX2                !
 ! D54   D(10,13,15,12)         -0.6562         estimate D2E/DX2                !
 ! D55   D(10,13,15,18)        179.1791         estimate D2E/DX2                !
 ! D56   D(14,13,15,12)       -176.0646         estimate D2E/DX2                !
 ! D57   D(14,13,15,18)          3.7707         estimate D2E/DX2                !
 ! D58   D(12,15,18,19)        179.9252         estimate D2E/DX2                !
 ! D59   D(12,15,18,22)          0.1236         estimate D2E/DX2                !
 ! D60   D(13,15,18,19)          0.1117         estimate D2E/DX2                !
 ! D61   D(13,15,18,22)       -179.6898         estimate D2E/DX2                !
 ! D62   D(12,16,20,21)       -179.717          estimate D2E/DX2                !
 ! D63   D(12,16,20,22)         -0.0908         estimate D2E/DX2                !
 ! D64   D(17,16,20,21)          0.5544         estimate D2E/DX2                !
 ! D65   D(17,16,20,22)       -179.8195         estimate D2E/DX2                !
 ! D66   D(15,18,22,20)          0.1108         estimate D2E/DX2                !
 ! D67   D(15,18,22,23)        179.8487         estimate D2E/DX2                !
 ! D68   D(19,18,22,20)       -179.691          estimate D2E/DX2                !
 ! D69   D(19,18,22,23)          0.0469         estimate D2E/DX2                !
 ! D70   D(16,20,22,18)         -0.1288         estimate D2E/DX2                !
 ! D71   D(16,20,22,23)       -179.8665         estimate D2E/DX2                !
 ! D72   D(21,20,22,18)        179.4983         estimate D2E/DX2                !
 ! D73   D(21,20,22,23)         -0.2393         estimate D2E/DX2                !
 ! D74   D(4,24,26,27)        -174.8917         estimate D2E/DX2                !
 ! D75   D(4,24,26,28)         -55.0473         estimate D2E/DX2                !
 ! D76   D(4,24,26,29)          65.9058         estimate D2E/DX2                !
 ! D77   D(1,30,31,32)         179.8603         estimate D2E/DX2                !
 ! D78   D(1,30,31,33)          -0.2099         estimate D2E/DX2                !
 ! D79   D(34,30,31,32)         -0.3952         estimate D2E/DX2                !
 ! D80   D(34,30,31,33)        179.5346         estimate D2E/DX2                !
 ! D81   D(30,31,32,35)        179.8175         estimate D2E/DX2                !
 ! D82   D(30,31,32,36)          0.0704         estimate D2E/DX2                !
 ! D83   D(33,31,32,35)         -0.1103         estimate D2E/DX2                !
 ! D84   D(33,31,32,36)       -179.8574         estimate D2E/DX2                !
 ! D85   D(30,31,33,37)       -179.7323         estimate D2E/DX2                !
 ! D86   D(30,31,33,38)        -59.824          estimate D2E/DX2                !
 ! D87   D(30,31,33,39)         60.4416         estimate D2E/DX2                !
 ! D88   D(32,31,33,37)          0.1933         estimate D2E/DX2                !
 ! D89   D(32,31,33,38)        120.1016         estimate D2E/DX2                !
 ! D90   D(32,31,33,39)       -119.6328         estimate D2E/DX2                !
 --------------------------------------------------------------------------------
 Trust Radius=3.00D-01 FncErr=1.00D-07 GrdErr=1.00D-06
 Number of steps in this run=    207 maximum allowed number of steps=    234.
 GradGradGradGradGradGradGradGradGradGradGradGradGradGradGradGradGradGrad

 Leave Link  103 at Wed Feb 07 21:06:21 2024, MaxMem=    33554432 cpu:         0.0
 (Enter C:\G09W\l202.exe)
                          Input orientation:                          
 ---------------------------------------------------------------------
 Center     Atomic      Atomic             Coordinates (Angstroms)
 Number     Number       Type             X           Y           Z
 ---------------------------------------------------------------------
      1          7           0       -2.279137    1.549385    0.007297
      2          6           0       -1.266735    2.080081   -0.884347
      3          1           0       -1.194645    1.403787   -1.741263
      4          6           0        0.108418    2.125905   -0.234262
      5          8           0        1.128010    2.334358   -0.855521
      6          6           0       -1.637005    3.488181   -1.454522
      7          1           0       -0.834544    3.785054   -2.139166
      8          1           0       -2.538043    3.334773   -2.056357
      9          6           0       -1.877703    4.546926   -0.418802
     10          6           0       -3.097697    4.884940    0.114916
     11          1           0       -4.078893    4.492734   -0.116955
     12          6           0       -0.904052    5.397614    0.230068
     13          7           0       -2.945741    5.882287    1.059586
     14          1           0       -3.698889    6.337658    1.550789
     15          6           0       -1.611783    6.225090    1.146548
     16          6           0        0.490279    5.557181    0.116777
     17          1           0        1.060984    4.942724   -0.573263
     18          6           0       -0.973559    7.183235    1.941249
     19          1           0       -1.533666    7.806008    2.634340
     20          6           0        1.127639    6.508501    0.904726
     21          1           0        2.202914    6.640833    0.819704
     22          6           0        0.403857    7.312864    1.809024
     23          1           0        0.930475    8.049426    2.409772
     24          8           0        0.065134    1.960778    1.104458
     25          1           0       -2.158032    1.713679    0.994586
     26          6           0       -0.784298    2.880109    1.817488
     27          1           0       -0.625981    2.663417    2.874125
     28          1           0       -0.508393    3.911214    1.586184
     29          1           0       -1.827879    2.709070    1.541924
     30          6           0       -3.400268    0.934616   -0.477155
     31          6           0       -4.381518    0.446675    0.562224
     32          6           0       -5.488783   -0.156092    0.116001
     33          6           0       -4.093086    0.645459    2.031156
     34          8           0       -3.585136    0.789372   -1.684987
     35          1           0       -6.244260   -0.538954    0.796604
     36          1           0       -5.649826   -0.277320   -0.950015
     37          1           0       -4.899102    0.231723    2.643841
     38          1           0       -3.160186    0.151298    2.333462
     39          1           0       -3.996506    1.709371    2.288231
 ---------------------------------------------------------------------
                    Distance matrix (angstroms):
                    1          2          3          4          5
     1  N    0.000000
     2  C    1.449699   0.000000
     3  H    2.062713   1.094017   0.000000
     4  C    2.468025   1.521761   2.119075   0.000000
     5  O    3.601290   2.408379   2.654285   1.212016   0.000000
     6  C    2.511609   1.563632   2.150023   2.528108   3.055391
     7  H    3.419411   2.160623   2.440990   2.696407   2.757513
     8  H    2.741042   2.136372   2.373333   3.432950   3.985320
     9  C    3.054172   2.583668   3.477757   3.136889   3.757724
    10  C    3.436212   3.495453   4.380118   4.244217   5.030290
    11  H    3.452226   3.783917   4.527566   4.811363   5.684708
    12  C    4.092598   3.518450   4.463323   3.456122   3.832925
    13  N    4.508405   4.588541   5.564895   5.011221   5.731569
    14  H    5.227391   5.474690   6.438317   5.951543   6.716821
    15  C    4.858546   4.628682   5.635461   4.655002   5.162609
    16  C    4.872790   4.022384   4.852007   3.470260   3.426172
    17  H    4.796687   3.702671   4.356164   2.992786   2.624449
    18  C    6.097948   5.840559   6.856514   5.610713   5.979140
    19  H    6.826596   6.725969   7.762040   6.571825   7.014456
    20  C    6.083119   5.342726   6.200997   4.641471   4.530114
    21  H    6.831663   5.978521   6.747489   5.087468   4.744209
    22  C    6.607751   6.117774   7.076507   5.582728   5.692954
    23  H    7.637017   7.163242   8.118604   6.538715   6.585070
    24  O    2.620804   2.396550   3.161552   1.349560   2.260705
    25  H    1.008166   2.111647   2.917022   2.610899   3.821807
    26  C    2.698548   2.858794   3.874612   2.361238   3.331627
    27  H    3.491804   3.857067   4.817868   3.238878   4.134613
    28  H    3.347634   3.167279   4.222563   2.623320   3.335598
    29  H    1.975749   2.568522   3.589438   2.691498   3.824321
    30  C    1.367321   2.455577   2.585123   3.713360   4.754759
    31  C    2.438015   3.802954   4.047008   4.859396   5.994018
    32  C    3.636247   4.881276   4.931761   6.054655   7.136395
    33  C    2.864174   4.306571   4.817381   4.997646   6.200413
    34  O    2.268717   2.771631   2.468829   4.187274   5.028791
    35  H    4.550425   5.870324   5.976088   6.965678   8.083057
    36  H    3.951562   4.977263   4.827094   6.280539   7.264218
    37  H    3.943579   5.390606   5.858828   6.078376   7.279608
    38  H    2.853408   4.202339   4.694194   4.601744   5.772693
    39  H    2.859652   4.201706   4.917380   4.835997   6.044373
                    6          7          8          9         10
     6  C    0.000000
     7  H    1.095817   0.000000
     8  H    1.094354   1.763950   0.000000
     9  C    1.500531   2.151345   2.141718   0.000000
    10  C    2.558846   3.378240   2.725924   1.373862   0.000000
    11  H    2.959904   3.887925   2.734297   2.222451   1.081820
    12  C    2.649717   2.866785   3.486113   1.446616   2.255699
    13  N    3.710158   4.368931   4.045386   2.260426   1.382097
    14  H    4.626314   5.323160   4.834914   3.225326   2.129214
    15  C    3.775827   4.165789   4.412538   2.310252   2.251268
    16  C    3.357839   3.159885   4.339626   2.629600   3.650409
    17  H    3.189272   2.717587   4.211659   2.969241   4.215633
    18  C    5.062098   5.311944   5.765339   3.652046   3.623481
    19  H    5.947528   6.280383   6.557695   4.479023   4.162490
    20  C    4.725636   4.531292   5.681355   3.825125   4.594912
    21  H    5.464091   5.112390   6.455884   4.750765   5.628176
    22  C    5.426238   5.437582   6.278628   4.221272   4.585379
    23  H    6.506125   6.480200   7.362396   5.306052   5.613065
    24  O    3.431998   3.828642   4.319160   3.575346   4.419663
    25  H    3.068950   3.982790   3.475717   3.178607   3.422527
    26  C    3.435536   4.059134   4.276566   2.995798   3.502844
    27  H    4.521016   5.141465   5.330700   3.994720   4.319466
    28  H    3.270874   3.741728   4.209498   2.509803   3.133253
    29  H    3.101956   3.961677   3.720681   2.687870   2.895376
    30  C    3.253465   4.179739   2.999677   3.920509   4.005890
    31  C    4.566221   5.569857   4.312363   4.903424   4.641818
    32  C    5.530231   6.502334   5.060843   5.953511   5.579363
    33  C    5.124778   6.153595   5.134036   5.111914   4.757727
    34  O    3.336450   4.092205   2.777298   4.317148   4.500103
    35  H    6.520137   7.522022   6.072989   6.812504   6.307470
    36  H    5.525963   6.411233   4.894324   6.146907   5.856311
    37  H    6.167850   7.212763   6.106995   6.093408   5.594010
    38  H    5.272920   6.214273   5.458213   5.342403   5.228118
    39  H    4.768606   5.823084   4.862560   4.457474   3.951632
                   11         12         13         14         15
    11  H    0.000000
    12  C    3.319466   0.000000
    13  N    2.144560   2.256436   0.000000
    14  H    2.515853   3.230960   1.007906   0.000000
    15  C    3.268659   1.423213   1.380044   2.128872   0.000000
    16  C    4.697341   1.407997   3.577823   4.496072   2.434172
    17  H    5.179677   2.171090   4.427508   5.395724   3.427229
    18  C    4.595443   2.474149   2.521765   2.880084   1.398900
    19  H    5.002558   3.460823   2.859110   2.831665   2.172309
    20  C    5.675837   2.411846   4.124143   4.872572   2.764640
    21  H    6.704682   3.398014   5.209758   5.954635   3.851179
    22  C    5.635387   2.805693   3.718605   4.224955   2.384310
    23  H    6.642904   3.892133   4.641610   5.009892   3.374465
    24  O    5.007556   3.676374   4.944251   5.790005   4.582377
    25  H    3.556456   3.965897   4.242877   4.905587   4.546901
    26  C    4.146925   2.978603   3.776152   4.529969   3.510525
    27  H    4.920931   3.813686   4.362908   4.969309   4.079441
    28  H    3.998415   2.050606   3.178538   4.008510   2.600917
    29  H    3.316685   3.130925   3.398760   4.082574   3.544772
    30  C    3.640120   5.162326   5.200732   5.778805   5.815857
    31  C    4.113813   6.059282   5.643997   6.012231   6.434512
    32  C    4.863500   7.202529   6.619625   6.887026   7.537415
    33  C    4.406371   5.999736   5.448368   5.726017   6.170224
    34  O    4.051840   5.664940   5.820592   6.423913   6.438846
    35  H    5.553493   8.005100   7.223692   7.371262   8.205766
    36  H    5.090701   7.491319   7.020779   7.336083   7.936164
    37  H    5.143049   6.962267   6.185011   6.318047   6.997771
    38  H    5.069184   6.085905   5.874775   6.258900   6.379440
    39  H    3.679513   5.234735   4.475143   4.696109   5.232786
                   16         17         18         19         20
    16  C    0.000000
    17  H    1.086010   0.000000
    18  C    2.848784   3.934721   0.000000
    19  H    3.935949   5.021884   1.087171   0.000000
    20  C    1.390000   2.154195   2.438171   3.428940   0.000000
    21  H    2.145116   2.475466   3.412043   4.314228   1.086718
    22  C    2.439999   3.424132   1.389807   2.162945   1.410183
    23  H    3.415096   4.308959   2.143629   2.486297   2.162980
    24  O    3.753715   3.563490   5.390098   6.250073   4.674462
    25  H    4.749380   4.821509   5.675843   6.339960   5.813263
    26  C    3.418140   3.657203   4.309064   5.049087   4.201650
    27  H    4.150046   4.463808   4.628156   5.227584   4.662445
    28  H    2.421923   2.861847   3.323939   4.161639   3.144342
    29  H    3.939116   4.220042   4.572469   5.220987   4.855593
    30  C    6.071015   5.998077   7.126207   7.770561   7.312983
    31  C    7.074610   7.150148   7.674447   8.158658   8.198406
    32  C    8.269865   8.329013   8.808206   9.240130   9.424220
    33  C    6.985492   7.198188   7.244449   7.628101   7.930956
    34  O    6.525900   6.330299   7.800731   8.491071   7.850178
    35  H    9.109284   9.235362   9.419273   9.757323  10.199177
    36  H    8.536999   8.510334   9.267511   9.753490   9.768392
    37  H    7.986989   8.250207   8.014178   8.288308   8.873786
    38  H    6.889351   7.016059   7.374504   7.831391   7.800049
    39  H    6.296991   6.649881   6.262730   6.584402   7.155599
                   21         22         23         24         25
    21  H    0.000000
    22  C    2.160320   0.000000
    23  H    2.476196   1.086621   0.000000
    24  O    5.153067   5.408879   6.286835   0.000000
    25  H    6.582194   6.211076   7.189111   2.239553   0.000000
    26  C    4.905308   4.589238   5.478420   1.440526   1.981129
    27  H    5.295576   4.879792   5.625591   2.025602   2.604199
    28  H    3.922945   3.528893   4.457963   2.089304   2.810776
    29  H    5.676940   5.123174   6.072979   2.082022   1.182956
    30  C    8.101752   7.770459   8.815338   3.945062   2.077525
    31  C    9.043706   8.461613   9.456877   4.728556   2.595404
    32  C   10.288614   9.663066  10.667651   6.025295   3.919420
    33  C    8.777911   8.045255   8.955347   4.458657   2.441311
    34  O    8.603173   8.406910   9.479777   4.741062   3.173496
    35  H   11.086235  10.337965  11.306609   6.793518   4.670204
    36  H   10.614060  10.093081  11.132081   6.472304   4.465218
    37  H    9.738726   8.885993   9.754754   5.477497   3.525578
    38  H    8.553851   8.016575   8.894929   3.897096   2.288653
    39  H    8.056593   7.140866   8.030330   4.238094   2.248004
                   26         27         28         29         30
    26  C    0.000000
    27  H    1.090184   0.000000
    28  H    1.092155   1.797113   0.000000
    29  H    1.092818   1.794827   1.785540   0.000000
    30  C    3.986681   4.681506   4.634700   3.114125   0.000000
    31  C    4.520761   4.935878   5.296473   3.549552   1.510380
    32  C    5.851987   6.261288   6.596112   4.862574   2.429686
    33  C    3.998424   4.099215   4.869618   3.103063   2.618249
    34  O    4.948051   5.749274   5.469260   4.145618   1.230500
    35  H    6.522529   6.792373   7.302575   5.532593   3.447051
    36  H    6.426648   6.964984   7.100033   5.453033   2.598634
    37  H    4.962703   4.921964   5.825428   4.096814   3.532871
    38  H    3.654789   3.609051   4.661266   2.990614   2.927592
    39  H    3.451160   3.551607   4.184246   2.501862   2.933105
                   31         32         33         34         35
    31  C    0.000000
    32  C    1.337340   0.000000
    33  C    1.510122   2.501654   0.000000
    34  O    2.408656   2.785916   3.753457   0.000000
    35  H    2.120426   1.086532   2.748545   3.872168   0.000000
    36  H    2.102295   1.084906   3.487455   2.437409   1.863460
    37  H    2.155743   2.624519   1.093720   4.558096   2.411571
    38  H    2.171677   3.230168   1.098129   4.090923   3.514241
    39  H    2.172956   3.228843   1.098783   4.099035   3.511740
                   36         37         38         39
    36  H    0.000000
    37  H    3.706550   0.000000
    38  H    4.142855   1.768229   0.000000
    39  H    4.143266   1.767649   1.768918   0.000000
 Stoichiometry    C16H18N2O3
 Framework group  C1[X(C16H18N2O3)]
 Deg. of freedom   111
 Full point group                 C1      NOp   1
 Largest Abelian subgroup         C1      NOp   1
 Largest concise Abelian subgroup C1      NOp   1
                         Standard orientation:                         
 ---------------------------------------------------------------------
 Center     Atomic      Atomic             Coordinates (Angstroms)
 Number     Number       Type             X           Y           Z
 ---------------------------------------------------------------------
      1          7           0        1.870003    0.506059    0.127760
      2          6           0        1.011333    1.422269   -0.596722
      3          1           0        1.656372    2.122798   -1.135293
      4          6           0        0.133105    2.247435    0.332563
      5          8           0       -0.502106    3.210634   -0.038566
      6          6           0        0.129842    0.707129   -1.672125
      7          1           0       -0.451558    1.481116   -2.185677
      8          1           0        0.832936    0.291376   -2.400424
      9          6           0       -0.766201   -0.372381   -1.139811
     10          6           0       -0.461765   -1.710709   -1.079034
     11          1           0        0.428644   -2.226256   -1.413279
     12          6           0       -2.092495   -0.234662   -0.578852
     13          7           0       -1.506735   -2.412604   -0.508445
     14          1           0       -1.546435   -3.414386   -0.404852
     15          6           0       -2.526534   -1.535782   -0.199071
     16          6           0       -2.964316    0.852163   -0.375887
     17          1           0       -2.665129    1.858168   -0.654921
     18          6           0       -3.781011   -1.772287    0.373007
     19          1           0       -4.093270   -2.774795    0.654810
     20          6           0       -4.211696    0.620714    0.192071
     21          1           0       -4.892041    1.453704    0.347680
     22          6           0       -4.616135   -0.677954    0.564235
     23          1           0       -5.598540   -0.827004    1.004018
     24          8           0        0.098687    1.765199    1.592554
     25          1           0        1.524904    0.142457    1.002459
     26          6           0       -0.304942    0.388340    1.720844
     27          1           0       -0.365044    0.201030    2.793134
     28          1           0       -1.274189    0.229502    1.243211
     29          1           0        0.442640   -0.260827    1.258293
     30          6           0        3.057176    0.078652   -0.399033
     31          6           0        3.842103   -0.889822    0.453724
     32          6           0        5.006269   -1.326539   -0.038693
     33          6           0        3.307722   -1.323415    1.797934
     34          8           0        3.453143    0.468708   -1.496848
     35          1           0        5.633928   -2.022181    0.511469
     36          1           0        5.348834   -0.983759   -1.009348
     37          1           0        3.998208   -2.018886    2.283498
     38          1           0        3.166721   -0.470097    2.474583
     39          1           0        2.337621   -1.831386    1.707410
 ---------------------------------------------------------------------
 Rotational constants (GHZ):      0.5593026      0.2140399      0.1872548
 Leave Link  202 at Wed Feb 07 21:06:21 2024, MaxMem=    33554432 cpu:         0.0
 (Enter C:\G09W\l301.exe)
 Standard basis: 6-31G(d,p) (6D, 7F)
 Ernie: Thresh=  0.10000D-02 Tol=  0.10000D-05 Strict=F.
 There are   405 symmetry adapted cartesian basis functions of A   symmetry.
 There are   405 symmetry adapted basis functions of A   symmetry.
   405 basis functions,   714 primitive gaussians,   405 cartesian basis functions
    76 alpha electrons       76 beta electrons
       nuclear repulsion energy      1720.6154857370 Hartrees.
 IExCor=  402 DFT=T Ex+Corr=B3LYP ExCW=0 ScaHFX=  0.200000
 ScaDFX=  0.800000  0.720000  1.000000  0.810000 ScalE2=  1.000000  1.000000
 IRadAn=      0 IRanWt=     -1 IRanGd=            0 ICorTp=0 IEmpDi=  4
 NAtoms=   39 NActive=   39 NUniq=   39 SFac= 1.00D+00 NAtFMM=   60 NAOKFM=F Big=F
 Integral buffers will be    262144 words long.
 Raffenetti 2 integral format.
 Two-electron integral symmetry is turned on.
 Leave Link  301 at Wed Feb 07 21:06:21 2024, MaxMem=    33554432 cpu:         0.0
 (Enter C:\G09W\l302.exe)
 NPDir=0 NMtPBC=     1 NCelOv=     1 NCel=       1 NClECP=     1 NCelD=      1
         NCelK=      1 NCelE2=     1 NClLst=     1 CellRange=     0.0.
 One-electron integrals computed using PRISM.
 NBasis=   405 RedAO= T EigKep=  3.61D-04  NBF=   405
 NBsUse=   405 1.00D-06 EigRej= -1.00D+00 NBFU=   405
 Precomputing XC quadrature grid using
 IXCGrd= 4 IRadAn=           0 IRanWt=          -1 IRanGd=           0 AccXCQ= 0.00D+00.
 Generated NRdTot=       0 NPtTot=           0 NUsed=           0 NTot=          16
 NSgBfM=   400   400   400   400   402 MxSgAt=    39 MxSgA2=    39.
 Leave Link  302 at Wed Feb 07 21:06:22 2024, MaxMem=    33554432 cpu:         1.0
 (Enter C:\G09W\l303.exe)
 DipDrv:  MaxL=1.
 Leave Link  303 at Wed Feb 07 21:06:23 2024, MaxMem=    33554432 cpu:         1.0
 (Enter C:\G09W\l401.exe)
 ExpMin= 1.61D-01 ExpMax= 5.48D+03 ExpMxC= 8.25D+02 IAcc=1 IRadAn=         1 AccDes= 0.00D+00
 Harris functional with IExCor=  402 and IRadAn=       1 diagonalized for initial guess.
 HarFok:  IExCor=  402 AccDes= 0.00D+00 IRadAn=         1 IDoV= 1 UseB2=F ITyADJ=14
 ICtDFT=  3500011 ScaDFX=  1.000000  1.000000  1.000000  1.000000
 FoFCou: FMM=F IPFlag=           0 FMFlag=      100000 FMFlg1=           0
         NFxFlg=           0 DoJE=T BraDBF=F KetDBF=T FulRan=T
         wScrn=  0.000000 ICntrl=     500 IOpCl=  0 I1Cent=   200000004 NGrid=           0
         NMat0=    1 NMatS0=      1 NMatT0=    0 NMatD0=    1 NMtDS0=    0 NMtDT0=    0
 Petite list used in FoFCou.
 Harris En= -955.724053435919    
 JPrj=0 DoOrth=F DoCkMO=F.
 Leave Link  401 at Wed Feb 07 21:06:24 2024, MaxMem=    33554432 cpu:         1.0
 (Enter C:\G09W\l502.exe)
 Closed shell SCF:
 Using DIIS extrapolation, IDIIS=  1040.
 Integral symmetry usage will be decided dynamically.
 IVT=      516292 IEndB=      516292 NGot=    33554432 MDV=    33219211
 LenX=    33219211 LenY=    33054745
 Requested convergence on RMS density matrix=1.00D-08 within 128 cycles.
 Requested convergence on MAX density matrix=1.00D-06.
 Requested convergence on             energy=1.00D-06.
 No special actions if energy rises.
 Fock matrices will be formed incrementally for  20 cycles.
 Integral accuracy reduced to 1.0D-05 until final iterations.

 Cycle   1  Pass 0  IDiag  1:
 FoFJK:  IHMeth= 1 ICntrl=       0 DoSepK=F KAlg= 0 I1Cent=   0 FoldK=F
 IRaf= 750000000 NMat=   1 IRICut=       1 DoRegI=T DoRafI=F ISym2E= 0.
 FoFCou: FMM=F IPFlag=           0 FMFlag=      100000 FMFlg1=           0
         NFxFlg=           0 DoJE=F BraDBF=F KetDBF=F FulRan=T
         wScrn=  0.000000 ICntrl=       0 IOpCl=  0 I1Cent=           0 NGrid=           0
         NMat0=    1 NMatS0=      1 NMatT0=    0 NMatD0=    1 NMtDS0=    0 NMtDT0=    0
 Symmetry not used in FoFCou.
 E= -955.169883674507    
 DIIS: error= 2.11D-02 at cycle   1 NSaved=   1.
 NSaved= 1 IEnMin= 1 EnMin= -955.169883674507     IErMin= 1 ErrMin= 2.11D-02
 ErrMax= 2.11D-02  0.00D+00 EMaxC= 1.00D-01 BMatC= 5.54D-01 BMatP= 5.54D-01
 IDIUse=3 WtCom= 7.89D-01 WtEn= 2.11D-01
 Coeff-Com:  0.100D+01
 Coeff-En:   0.100D+01
 Coeff:      0.100D+01
 Gap=     0.174 Goal=   None    Shift=    0.000
 GapD=    0.174 DampG=1.000 DampE=0.500 DampFc=0.5000 IDamp=-1.
 Damping current iteration by 5.00D-01
 RMSDP=4.66D-03 MaxDP=1.99D-01              OVMax= 2.32D-01

 Cycle   2  Pass 0  IDiag  1:
 RMSU=  2.31D-03    CP:  9.82D-01
 E= -955.327937580831     Delta-E=       -0.158053906324 Rises=F Damp=T
 DIIS: error= 8.93D-03 at cycle   2 NSaved=   2.
 NSaved= 2 IEnMin= 2 EnMin= -955.327937580831     IErMin= 2 ErrMin= 8.93D-03
 ErrMax= 8.93D-03  0.00D+00 EMaxC= 1.00D-01 BMatC= 9.42D-02 BMatP= 5.54D-01
 IDIUse=3 WtCom= 9.11D-01 WtEn= 8.93D-02
 Coeff-Com:  0.206D+00 0.794D+00
 Coeff-En:   0.311D+00 0.689D+00
 Coeff:      0.215D+00 0.785D+00
 Gap=     0.237 Goal=   None    Shift=    0.000
 RMSDP=1.67D-03 MaxDP=1.07D-01 DE=-1.58D-01 OVMax= 2.01D-01

 Cycle   3  Pass 0  IDiag  1:
 RMSU=  1.49D-03    CP:  9.65D-01  6.99D-01
 E= -955.598671663395     Delta-E=       -0.270734082564 Rises=F Damp=F
 DIIS: error= 1.01D-02 at cycle   3 NSaved=   3.
 NSaved= 3 IEnMin= 3 EnMin= -955.598671663395     IErMin= 2 ErrMin= 8.93D-03
 ErrMax= 1.01D-02  0.00D+00 EMaxC= 1.00D-01 BMatC= 1.12D-01 BMatP= 9.42D-02
 IDIUse=2 WtCom= 0.00D+00 WtEn= 1.00D+00
 Coeff-En:   0.000D+00 0.000D+00 0.100D+01
 Coeff:      0.000D+00 0.000D+00 0.100D+01
 Gap=     0.179 Goal=   None    Shift=    0.000
 RMSDP=2.78D-03 MaxDP=1.89D-01 DE=-2.71D-01 OVMax= 2.56D-01

 Cycle   4  Pass 0  IDiag  1:
 RMSU=  1.46D-03    CP:  9.75D-01  1.27D+00 -3.06D-01
 E= -955.108447293731     Delta-E=        0.490224369663 Rises=F Damp=F
 DIIS: error= 2.98D-02 at cycle   4 NSaved=   4.
 NSaved= 4 IEnMin= 3 EnMin= -955.598671663395     IErMin= 2 ErrMin= 8.93D-03
 ErrMax= 2.98D-02  0.00D+00 EMaxC= 1.00D-01 BMatC= 7.20D-01 BMatP= 9.42D-02
 IDIUse=2 WtCom= 0.00D+00 WtEn= 1.00D+00
 Coeff-En:   0.000D+00 0.000D+00 0.802D+00 0.198D+00
 Coeff:      0.000D+00 0.000D+00 0.802D+00 0.198D+00
 Gap=     0.192 Goal=   None    Shift=    0.000
 RMSDP=1.54D-03 MaxDP=1.19D-01 DE= 4.90D-01 OVMax= 1.38D-01

 Cycle   5  Pass 0  IDiag  1:
 RMSU=  2.54D-04    CP:  9.72D-01  8.86D-01  3.58D-01  5.02D-01
 E= -955.652925223558     Delta-E=       -0.544477929827 Rises=F Damp=F
 DIIS: error= 7.01D-03 at cycle   5 NSaved=   5.
 NSaved= 5 IEnMin= 5 EnMin= -955.652925223558     IErMin= 5 ErrMin= 7.01D-03
 ErrMax= 7.01D-03  0.00D+00 EMaxC= 1.00D-01 BMatC= 5.17D-02 BMatP= 9.42D-02
 IDIUse=3 WtCom= 9.30D-01 WtEn= 7.01D-02
 Coeff-Com: -0.266D-02 0.411D-01 0.338D+00-0.653D-01 0.689D+00
 Coeff-En:   0.000D+00 0.000D+00 0.352D+00 0.000D+00 0.648D+00
 Coeff:     -0.247D-02 0.382D-01 0.339D+00-0.608D-01 0.686D+00
 Gap=     0.178 Goal=   None    Shift=    0.000
 RMSDP=5.46D-04 MaxDP=3.18D-02 DE=-5.44D-01 OVMax= 4.66D-02

 Cycle   6  Pass 0  IDiag  1:
 RMSU=  1.06D-04    CP:  9.69D-01  7.93D-01  6.16D-01  3.05D-01  6.33D-01
 E= -955.696115833590     Delta-E=       -0.043190610032 Rises=F Damp=F
 DIIS: error= 1.32D-03 at cycle   6 NSaved=   6.
 NSaved= 6 IEnMin= 6 EnMin= -955.696115833590     IErMin= 6 ErrMin= 1.32D-03
 ErrMax= 1.32D-03  0.00D+00 EMaxC= 1.00D-01 BMatC= 6.49D-04 BMatP= 5.17D-02
 IDIUse=3 WtCom= 9.87D-01 WtEn= 1.32D-02
 Coeff-Com: -0.694D-02 0.265D-01 0.167D+00-0.664D-01 0.459D+00 0.421D+00
 Coeff-En:   0.000D+00 0.000D+00 0.000D+00 0.000D+00 0.000D+00 0.100D+01
 Coeff:     -0.685D-02 0.261D-01 0.165D+00-0.655D-01 0.453D+00 0.428D+00
 Gap=     0.179 Goal=   None    Shift=    0.000
 RMSDP=7.47D-05 MaxDP=3.88D-03 DE=-4.32D-02 OVMax= 1.24D-02

 Cycle   7  Pass 0  IDiag  1:
 RMSU=  2.49D-05    CP:  9.69D-01  8.02D-01  6.09D-01  3.00D-01  7.64D-01
                    CP:  4.60D-01
 E= -955.696746402256     Delta-E=       -0.000630568666 Rises=F Damp=F
 DIIS: error= 1.95D-04 at cycle   7 NSaved=   7.
 NSaved= 7 IEnMin= 7 EnMin= -955.696746402256     IErMin= 7 ErrMin= 1.95D-04
 ErrMax= 1.95D-04  0.00D+00 EMaxC= 1.00D-01 BMatC= 2.09D-05 BMatP= 6.49D-04
 IDIUse=3 WtCom= 9.98D-01 WtEn= 1.95D-03
 Coeff-Com: -0.148D-02 0.380D-02 0.466D-01-0.184D-01 0.125D+00 0.179D+00
 Coeff-Com:  0.666D+00
 Coeff-En:   0.000D+00 0.000D+00 0.000D+00 0.000D+00 0.000D+00 0.000D+00
 Coeff-En:   0.100D+01
 Coeff:     -0.148D-02 0.380D-02 0.465D-01-0.183D-01 0.124D+00 0.178D+00
 Coeff:      0.667D+00
 Gap=     0.179 Goal=   None    Shift=    0.000
 RMSDP=1.56D-05 MaxDP=6.47D-04 DE=-6.31D-04 OVMax= 2.17D-03

 Cycle   8  Pass 0  IDiag  1:
 RMSU=  9.22D-06    CP:  9.69D-01  8.00D-01  6.12D-01  3.01D-01  7.45D-01
                    CP:  5.14D-01  6.90D-01
 E= -955.696763393908     Delta-E=       -0.000016991652 Rises=F Damp=F
 DIIS: error= 6.34D-05 at cycle   8 NSaved=   8.
 NSaved= 8 IEnMin= 8 EnMin= -955.696763393908     IErMin= 8 ErrMin= 6.34D-05
 ErrMax= 6.34D-05  0.00D+00 EMaxC= 1.00D-01 BMatC= 4.90D-06 BMatP= 2.09D-05
 IDIUse=1 WtCom= 1.00D+00 WtEn= 0.00D+00
 Coeff-Com: -0.135D-03-0.341D-03 0.135D-01-0.525D-02 0.336D-01 0.733D-01
 Coeff-Com:  0.441D+00 0.444D+00
 Coeff:     -0.135D-03-0.341D-03 0.135D-01-0.525D-02 0.336D-01 0.733D-01
 Coeff:      0.441D+00 0.444D+00
 Gap=     0.179 Goal=   None    Shift=    0.000
 RMSDP=5.86D-06 MaxDP=2.46D-04 DE=-1.70D-05 OVMax= 5.94D-04

 Initial convergence to 1.0D-05 achieved.  Increase integral accuracy.
 Cycle   9  Pass 1  IDiag  1:
 E= -955.696782775934     Delta-E=       -0.000019382026 Rises=F Damp=F
 DIIS: error= 4.87D-05 at cycle   1 NSaved=   1.
 NSaved= 1 IEnMin= 1 EnMin= -955.696782775934     IErMin= 1 ErrMin= 4.87D-05
 ErrMax= 4.87D-05  0.00D+00 EMaxC= 1.00D-01 BMatC= 9.28D-07 BMatP= 9.28D-07
 IDIUse=1 WtCom= 1.00D+00 WtEn= 0.00D+00
 Coeff-Com:  0.100D+01
 Coeff:      0.100D+01
 Gap=     0.179 Goal=   None    Shift=    0.000
 RMSDP=5.86D-06 MaxDP=2.46D-04 DE=-1.94D-05 OVMax= 2.80D-04

 Cycle  10  Pass 1  IDiag  1:
 RMSU=  2.67D-05    CP:  1.00D+00
 E= -955.696783362553     Delta-E=       -0.000000586619 Rises=F Damp=F
 DIIS: error= 1.74D-05 at cycle   2 NSaved=   2.
 NSaved= 2 IEnMin= 2 EnMin= -955.696783362553     IErMin= 2 ErrMin= 1.74D-05
 ErrMax= 1.74D-05  0.00D+00 EMaxC= 1.00D-01 BMatC= 3.75D-07 BMatP= 9.28D-07
 IDIUse=1 WtCom= 1.00D+00 WtEn= 0.00D+00
 Coeff-Com:  0.331D+00 0.669D+00
 Coeff:      0.331D+00 0.669D+00
 Gap=     0.179 Goal=   None    Shift=    0.000
 RMSDP=3.22D-06 MaxDP=1.59D-04 DE=-5.87D-07 OVMax= 3.39D-04

 Cycle  11  Pass 1  IDiag  1:
 RMSU=  3.21D-06    CP:  1.00D+00  9.99D-01
 E= -955.696783302178     Delta-E=        0.000000060375 Rises=F Damp=F
 DIIS: error= 1.78D-05 at cycle   3 NSaved=   3.
 NSaved= 3 IEnMin= 2 EnMin= -955.696783362553     IErMin= 2 ErrMin= 1.74D-05
 ErrMax= 1.78D-05  0.00D+00 EMaxC= 1.00D-01 BMatC= 4.45D-07 BMatP= 3.75D-07
 IDIUse=1 WtCom= 1.00D+00 WtEn= 0.00D+00
 Coeff-Com:  0.374D-02 0.521D+00 0.476D+00
 Coeff:      0.374D-02 0.521D+00 0.476D+00
 Gap=     0.179 Goal=   None    Shift=    0.000
 RMSDP=1.76D-06 MaxDP=8.16D-05 DE= 6.04D-08 OVMax= 1.74D-04

 Cycle  12  Pass 1  IDiag  1:
 RMSU=  5.61D-07    CP:  1.00D+00  1.01D+00  4.89D-01
 E= -955.696783696402     Delta-E=       -0.000000394225 Rises=F Damp=F
 DIIS: error= 3.01D-06 at cycle   4 NSaved=   4.
 NSaved= 4 IEnMin= 4 EnMin= -955.696783696402     IErMin= 4 ErrMin= 3.01D-06
 ErrMax= 3.01D-06  0.00D+00 EMaxC= 1.00D-01 BMatC= 1.07D-08 BMatP= 3.75D-07
 IDIUse=1 WtCom= 1.00D+00 WtEn= 0.00D+00
 Coeff-Com: -0.662D-02 0.294D+00 0.288D+00 0.425D+00
 Coeff:     -0.662D-02 0.294D+00 0.288D+00 0.425D+00
 Gap=     0.179 Goal=   None    Shift=    0.000
 RMSDP=3.05D-07 MaxDP=1.71D-05 DE=-3.94D-07 OVMax= 2.41D-05

 Cycle  13  Pass 1  IDiag  1:
 RMSU=  1.60D-07    CP:  1.00D+00  1.01D+00  4.90D-01  5.39D-01
 E= -955.696783705620     Delta-E=       -0.000000009218 Rises=F Damp=F
 DIIS: error= 8.89D-07 at cycle   5 NSaved=   5.
 NSaved= 5 IEnMin= 5 EnMin= -955.696783705620     IErMin= 5 ErrMin= 8.89D-07
 ErrMax= 8.89D-07  0.00D+00 EMaxC= 1.00D-01 BMatC= 6.32D-10 BMatP= 1.07D-08
 IDIUse=1 WtCom= 1.00D+00 WtEn= 0.00D+00
 Coeff-Com: -0.419D-02 0.139D+00 0.139D+00 0.253D+00 0.473D+00
 Coeff:     -0.419D-02 0.139D+00 0.139D+00 0.253D+00 0.473D+00
 Gap=     0.179 Goal=   None    Shift=    0.000
 RMSDP=8.34D-08 MaxDP=3.30D-06 DE=-9.22D-09 OVMax= 9.84D-06

 Cycle  14  Pass 1  IDiag  1:
 RMSU=  6.12D-08    CP:  1.00D+00  1.01D+00  4.96D-01  5.56D-01  6.72D-01
 E= -955.696783706327     Delta-E=       -0.000000000707 Rises=F Damp=F
 DIIS: error= 2.43D-07 at cycle   6 NSaved=   6.
 NSaved= 6 IEnMin= 6 EnMin= -955.696783706327     IErMin= 6 ErrMin= 2.43D-07
 ErrMax= 2.43D-07  0.00D+00 EMaxC= 1.00D-01 BMatC= 6.36D-11 BMatP= 6.32D-10
 IDIUse=1 WtCom= 1.00D+00 WtEn= 0.00D+00
 Coeff-Com: -0.156D-02 0.424D-01 0.428D-01 0.914D-01 0.276D+00 0.549D+00
 Coeff:     -0.156D-02 0.424D-01 0.428D-01 0.914D-01 0.276D+00 0.549D+00
 Gap=     0.179 Goal=   None    Shift=    0.000
 RMSDP=2.71D-08 MaxDP=1.21D-06 DE=-7.07D-10 OVMax= 2.70D-06

 Cycle  15  Pass 1  IDiag  1:
 RMSU=  1.81D-08    CP:  1.00D+00  1.01D+00  4.95D-01  5.58D-01  7.32D-01
                    CP:  7.18D-01
 E= -955.696783706329     Delta-E=       -0.000000000002 Rises=F Damp=F
 DIIS: error= 1.32D-07 at cycle   7 NSaved=   7.
 NSaved= 7 IEnMin= 7 EnMin= -955.696783706329     IErMin= 7 ErrMin= 1.32D-07
 ErrMax= 1.32D-07  0.00D+00 EMaxC= 1.00D-01 BMatC= 8.59D-12 BMatP= 6.36D-11
 IDIUse=1 WtCom= 1.00D+00 WtEn= 0.00D+00
 Coeff-Com: -0.319D-03 0.580D-02 0.576D-02 0.187D-01 0.943D-01 0.318D+00
 Coeff-Com:  0.557D+00
 Coeff:     -0.319D-03 0.580D-02 0.576D-02 0.187D-01 0.943D-01 0.318D+00
 Coeff:      0.557D+00
 Gap=     0.179 Goal=   None    Shift=    0.000
 RMSDP=9.56D-09 MaxDP=4.63D-07 DE=-2.27D-12 OVMax= 1.33D-06

 SCF Done:  E(RB3LYP) =  -955.696783706     A.U. after   15 cycles
            NFock= 15  Conv=0.96D-08     -V/T= 2.0090
 KE= 9.471262545975D+02 PE=-5.664821340206D+03 EE= 2.041382816165D+03
 Leave Link  502 at Wed Feb 07 21:07:59 2024, MaxMem=    33554432 cpu:        95.0
 (Enter C:\G09W\l601.exe)
 Copying SCF densities to generalized density rwf, IOpCl= 0 IROHF=0.

 **********************************************************************

            Population analysis using the SCF density.

 **********************************************************************

 Orbital symmetries:
       Occupied  (A) (A) (A) (A) (A) (A) (A) (A) (A) (A) (A) (A)
                 (A) (A) (A) (A) (A) (A) (A) (A) (A) (A) (A) (A)
                 (A) (A) (A) (A) (A) (A) (A) (A) (A) (A) (A) (A)
                 (A) (A) (A) (A) (A) (A) (A) (A) (A) (A) (A) (A)
                 (A) (A) (A) (A) (A) (A) (A) (A) (A) (A) (A) (A)
                 (A) (A) (A) (A) (A) (A) (A) (A) (A) (A) (A) (A)
                 (A) (A) (A) (A)
       Virtual   (A) (A) (A) (A) (A) (A) (A) (A) (A) (A) (A) (A)
                 (A) (A) (A) (A) (A) (A) (A) (A) (A) (A) (A) (A)
                 (A) (A) (A) (A) (A) (A) (A) (A) (A) (A) (A) (A)
                 (A) (A) (A) (A) (A) (A) (A) (A) (A) (A) (A) (A)
                 (A) (A) (A) (A) (A) (A) (A) (A) (A) (A) (A) (A)
                 (A) (A) (A) (A) (A) (A) (A) (A) (A) (A) (A) (A)
                 (A) (A) (A) (A) (A) (A) (A) (A) (A) (A) (A) (A)
                 (A) (A) (A) (A) (A) (A) (A) (A) (A) (A) (A) (A)
                 (A) (A) (A) (A) (A) (A) (A) (A) (A) (A) (A) (A)
                 (A) (A) (A) (A) (A) (A) (A) (A) (A) (A) (A) (A)
                 (A) (A) (A) (A) (A) (A) (A) (A) (A) (A) (A) (A)
                 (A) (A) (A) (A) (A) (A) (A) (A) (A) (A) (A) (A)
                 (A) (A) (A) (A) (A) (A) (A) (A) (A) (A) (A) (A)
                 (A) (A) (A) (A) (A) (A) (A) (A) (A) (A) (A) (A)
                 (A) (A) (A) (A) (A) (A) (A) (A) (A) (A) (A) (A)
                 (A) (A) (A) (A) (A) (A) (A) (A) (A) (A) (A) (A)
                 (A) (A) (A) (A) (A) (A) (A) (A) (A) (A) (A) (A)
                 (A) (A) (A) (A) (A) (A) (A) (A) (A) (A) (A) (A)
                 (A) (A) (A) (A) (A) (A) (A) (A) (A) (A) (A) (A)
                 (A) (A) (A) (A) (A) (A) (A) (A) (A) (A) (A) (A)
                 (A) (A) (A) (A) (A) (A) (A) (A) (A) (A) (A) (A)
                 (A) (A) (A) (A) (A) (A) (A) (A) (A) (A) (A) (A)
                 (A) (A) (A) (A) (A) (A) (A) (A) (A) (A) (A) (A)
                 (A) (A) (A) (A) (A) (A) (A) (A) (A) (A) (A) (A)
                 (A) (A) (A) (A) (A) (A) (A) (A) (A) (A) (A) (A)
                 (A) (A) (A) (A) (A) (A) (A) (A) (A) (A) (A) (A)
                 (A) (A) (A) (A) (A) (A) (A) (A) (A) (A) (A) (A)
                 (A) (A) (A) (A) (A)
 The electronic state is 1-A.
 Alpha  occ. eigenvalues --  -19.18690 -19.14537 -19.10919 -14.39057 -14.35921
 Alpha  occ. eigenvalues --  -10.32221 -10.28705 -10.24401 -10.23863 -10.22855
 Alpha  occ. eigenvalues --  -10.22820 -10.20915 -10.20397 -10.19874 -10.19761
 Alpha  occ. eigenvalues --  -10.19269 -10.19204 -10.19089 -10.19006 -10.18892
 Alpha  occ. eigenvalues --  -10.18608  -1.10333  -1.03026  -1.02435  -0.98877
 Alpha  occ. eigenvalues --   -0.93027  -0.84565  -0.81838  -0.80513  -0.76751
 Alpha  occ. eigenvalues --   -0.74170  -0.73489  -0.72396  -0.70296  -0.67740
 Alpha  occ. eigenvalues --   -0.62997  -0.62210  -0.61081  -0.59851  -0.56493
 Alpha  occ. eigenvalues --   -0.55354  -0.54318  -0.52437  -0.49915  -0.49117
 Alpha  occ. eigenvalues --   -0.48613  -0.47760  -0.46400  -0.46130  -0.45269
 Alpha  occ. eigenvalues --   -0.44363  -0.43715  -0.43528  -0.43369  -0.43065
 Alpha  occ. eigenvalues --   -0.42041  -0.41441  -0.41330  -0.39869  -0.39324
 Alpha  occ. eigenvalues --   -0.39058  -0.37883  -0.36884  -0.36312  -0.35513
 Alpha  occ. eigenvalues --   -0.34530  -0.33956  -0.33373  -0.30189  -0.28132
 Alpha  occ. eigenvalues --   -0.27400  -0.26540  -0.25395  -0.24878  -0.22977
 Alpha  occ. eigenvalues --   -0.21124
 Alpha virt. eigenvalues --   -0.03189  -0.02004  -0.01305   0.01661   0.04456
 Alpha virt. eigenvalues --    0.06774   0.07479   0.08224   0.09892   0.10678
 Alpha virt. eigenvalues --    0.11429   0.12389   0.13657   0.13849   0.14373
 Alpha virt. eigenvalues --    0.14404   0.15282   0.15580   0.16789   0.16874
 Alpha virt. eigenvalues --    0.17320   0.17540   0.17854   0.19542   0.19805
 Alpha virt. eigenvalues --    0.21498   0.21858   0.23186   0.23706   0.24085
 Alpha virt. eigenvalues --    0.25821   0.27102   0.27474   0.28069   0.30818
 Alpha virt. eigenvalues --    0.31536   0.33212   0.33410   0.34430   0.35087
 Alpha virt. eigenvalues --    0.36462   0.38327   0.40299   0.41096   0.42793
 Alpha virt. eigenvalues --    0.45896   0.48109   0.49235   0.50186   0.50879
 Alpha virt. eigenvalues --    0.51051   0.51791   0.53139   0.53622   0.54549
 Alpha virt. eigenvalues --    0.55313   0.55713   0.56501   0.57496   0.58389
 Alpha virt. eigenvalues --    0.58670   0.59424   0.60161   0.60764   0.60923
 Alpha virt. eigenvalues --    0.61314   0.61710   0.62034   0.63170   0.64085
 Alpha virt. eigenvalues --    0.64965   0.65290   0.66036   0.66925   0.67431
 Alpha virt. eigenvalues --    0.68290   0.69807   0.71313   0.72195   0.73116
 Alpha virt. eigenvalues --    0.74100   0.75215   0.75527   0.77601   0.78156
 Alpha virt. eigenvalues --    0.78614   0.79536   0.80216   0.80223   0.80824
 Alpha virt. eigenvalues --    0.81696   0.82629   0.82701   0.83144   0.84324
 Alpha virt. eigenvalues --    0.84972   0.85429   0.86656   0.86749   0.88052
 Alpha virt. eigenvalues --    0.89091   0.90198   0.90878   0.92207   0.92626
 Alpha virt. eigenvalues --    0.93624   0.94246   0.95179   0.96000   0.96231
 Alpha virt. eigenvalues --    0.96877   0.98319   1.00080   1.02315   1.03179
 Alpha virt. eigenvalues --    1.05015   1.07377   1.07598   1.07718   1.09262
 Alpha virt. eigenvalues --    1.11213   1.11821   1.12527   1.13319   1.14309
 Alpha virt. eigenvalues --    1.16018   1.16713   1.18673   1.20638   1.21794
 Alpha virt. eigenvalues --    1.23757   1.25514   1.26981   1.28419   1.28922
 Alpha virt. eigenvalues --    1.30260   1.31506   1.32474   1.34085   1.34752
 Alpha virt. eigenvalues --    1.36503   1.37435   1.37833   1.38266   1.39119
 Alpha virt. eigenvalues --    1.41055   1.41836   1.42464   1.42987   1.44309
 Alpha virt. eigenvalues --    1.45918   1.46943   1.47715   1.50067   1.51112
 Alpha virt. eigenvalues --    1.52929   1.54043   1.57181   1.59887   1.61998
 Alpha virt. eigenvalues --    1.66769   1.68318   1.70708   1.71303   1.72779
 Alpha virt. eigenvalues --    1.74579   1.75819   1.77035   1.77631   1.78193
 Alpha virt. eigenvalues --    1.79229   1.80797   1.81652   1.82098   1.82300
 Alpha virt. eigenvalues --    1.83343   1.84105   1.85182   1.85578   1.87408
 Alpha virt. eigenvalues --    1.87730   1.89538   1.90084   1.90763   1.91335
 Alpha virt. eigenvalues --    1.92834   1.93412   1.95330   1.96294   1.96650
 Alpha virt. eigenvalues --    1.97435   1.98104   1.98243   1.99381   2.00136
 Alpha virt. eigenvalues --    2.00858   2.02529   2.03265   2.03693   2.05352
 Alpha virt. eigenvalues --    2.05690   2.06401   2.06601   2.08091   2.08618
 Alpha virt. eigenvalues --    2.09994   2.10994   2.11926   2.13353   2.14405
 Alpha virt. eigenvalues --    2.15439   2.16979   2.17668   2.17758   2.21212
 Alpha virt. eigenvalues --    2.21722   2.24940   2.25424   2.26958   2.27954
 Alpha virt. eigenvalues --    2.28599   2.28965   2.30469   2.32196   2.33653
 Alpha virt. eigenvalues --    2.35786   2.37551   2.38400   2.38769   2.39466
 Alpha virt. eigenvalues --    2.40342   2.41769   2.42056   2.42813   2.44985
 Alpha virt. eigenvalues --    2.46012   2.48235   2.48301   2.50171   2.51022
 Alpha virt. eigenvalues --    2.51755   2.52392   2.53308   2.54384   2.55483
 Alpha virt. eigenvalues --    2.57018   2.57507   2.58282   2.59167   2.60860
 Alpha virt. eigenvalues --    2.61291   2.62380   2.63035   2.64785   2.66778
 Alpha virt. eigenvalues --    2.67892   2.68809   2.69086   2.69934   2.70630
 Alpha virt. eigenvalues --    2.71226   2.72347   2.73527   2.75419   2.76181
 Alpha virt. eigenvalues --    2.76672   2.79538   2.81173   2.81857   2.83949
 Alpha virt. eigenvalues --    2.84228   2.85375   2.88350   2.89381   2.91159
 Alpha virt. eigenvalues --    2.92967   2.94905   2.98448   2.99711   2.99950
 Alpha virt. eigenvalues --    3.01944   3.04169   3.07374   3.08902   3.11530
 Alpha virt. eigenvalues --    3.14376   3.17108   3.19536   3.21230   3.24095
 Alpha virt. eigenvalues --    3.26649   3.27733   3.31372   3.32603   3.36277
 Alpha virt. eigenvalues --    3.36736   3.40940   3.41568   3.43460   3.46347
 Alpha virt. eigenvalues --    3.47919   3.49068   3.50868   3.54037   3.59445
 Alpha virt. eigenvalues --    3.68338   3.74538   3.85372   4.03671   4.09601
 Alpha virt. eigenvalues --    4.13182   4.15092   4.16636   4.23932   4.27139
 Alpha virt. eigenvalues --    4.27963   4.30972   4.34654   4.38202   4.40494
 Alpha virt. eigenvalues --    4.43770   4.52303   4.53224   4.56283   4.59973
 Alpha virt. eigenvalues --    4.70645   4.77505   4.83554   4.91321
          Condensed to atoms (all electrons):
               1          2          3          4          5          6
     1  N    7.242524   0.175617  -0.047769  -0.025717   0.002662  -0.051185
     2  C    0.175617   5.213836   0.374257   0.289579  -0.083411   0.316713
     3  H   -0.047769   0.374257   0.540590  -0.023839  -0.000069  -0.027188
     4  C   -0.025717   0.289579  -0.023839   4.406675   0.547668  -0.034524
     5  O    0.002662  -0.083411  -0.000069   0.547668   8.037318  -0.000523
     6  C   -0.051185   0.316713  -0.027188  -0.034524  -0.000523   5.074885
     7  H    0.004968  -0.042273   0.000430  -0.003870   0.005921   0.363873
     8  H   -0.008818  -0.031058  -0.007506   0.004612   0.000087   0.373456
     9  C   -0.009054  -0.045042   0.004627  -0.007878  -0.001146   0.373236
    10  C    0.006878  -0.004197   0.000056  -0.000480  -0.000015  -0.080550
    11  H    0.000161   0.000053  -0.000008   0.000020   0.000000  -0.002196
    12  C   -0.000605  -0.002460  -0.000020   0.003929  -0.000454  -0.055869
    13  N   -0.000020   0.000055   0.000001   0.000010   0.000000   0.004832
    14  H   -0.000001   0.000000   0.000000   0.000000   0.000000  -0.000094
    15  C    0.000011   0.000086   0.000002  -0.000079   0.000000   0.009828
    16  C    0.000023  -0.000204  -0.000018   0.002943  -0.004224  -0.011300
    17  H    0.000005  -0.000257   0.000030   0.000956   0.010223   0.002204
    18  C    0.000000   0.000002   0.000000  -0.000007   0.000000  -0.000173
    19  H    0.000000   0.000000   0.000000   0.000000   0.000000   0.000001
    20  C    0.000001  -0.000017   0.000000  -0.000034   0.000061   0.000060
    21  H    0.000000   0.000000   0.000000   0.000001  -0.000004   0.000000
    22  C    0.000000   0.000000   0.000000  -0.000001   0.000001   0.000002
    23  H    0.000000   0.000000   0.000000   0.000000   0.000000   0.000000
    24  O    0.004078  -0.115761   0.002887   0.266549  -0.070846   0.000193
    25  H    0.327418  -0.047531   0.003503  -0.004753   0.000267   0.005282
    26  C   -0.043806   0.010511  -0.000258  -0.029887   0.000171  -0.001006
    27  H    0.000863  -0.000720   0.000012   0.002964  -0.000091   0.000041
    28  H    0.002001  -0.002499  -0.000014  -0.001566   0.001841   0.001234
    29  H   -0.027581   0.018621   0.000097  -0.012141  -0.000753  -0.005741
    30  C    0.231907  -0.013573  -0.002060   0.002928  -0.000041  -0.005255
    31  C   -0.106489   0.006827   0.000665  -0.000029   0.000000  -0.000555
    32  C    0.007637  -0.000222  -0.000010   0.000001   0.000000   0.000017
    33  C   -0.007584   0.000099  -0.000026  -0.000035   0.000000   0.000006
    34  O   -0.113772   0.007295   0.013717   0.000610   0.000000  -0.005091
    35  H   -0.000117   0.000001   0.000000   0.000000   0.000000   0.000000
    36  H    0.000731  -0.000016  -0.000008   0.000000   0.000000   0.000002
    37  H    0.000147   0.000003   0.000001   0.000000   0.000000   0.000000
    38  H    0.000139  -0.000013  -0.000009   0.000020   0.000000   0.000007
    39  H    0.000159  -0.000021  -0.000001   0.000017   0.000000  -0.000005
               7          8          9         10         11         12
     1  N    0.004968  -0.008818  -0.009054   0.006878   0.000161  -0.000605
     2  C   -0.042273  -0.031058  -0.045042  -0.004197   0.000053  -0.002460
     3  H    0.000430  -0.007506   0.004627   0.000056  -0.000008  -0.000020
     4  C   -0.003870   0.004612  -0.007878  -0.000480   0.000020   0.003929
     5  O    0.005921   0.000087  -0.001146  -0.000015   0.000000  -0.000454
     6  C    0.363873   0.373456   0.373236  -0.080550  -0.002196  -0.055869
     7  H    0.592421  -0.028190  -0.025163   0.004155  -0.000041  -0.006827
     8  H   -0.028190   0.582105  -0.031640  -0.007409   0.002842   0.004094
     9  C   -0.025163  -0.031640   4.980183   0.509229  -0.027545   0.401868
    10  C    0.004155  -0.007409   0.509229   4.980310   0.374787   0.002674
    11  H   -0.000041   0.002842  -0.027545   0.374787   0.574860   0.003207
    12  C   -0.006827   0.004094   0.401868   0.002674   0.003207   4.939704
    13  N   -0.000085   0.000038  -0.056414   0.306950  -0.046733  -0.062926
    14  H    0.000003  -0.000004   0.004412  -0.031935  -0.002276   0.007211
    15  C   -0.000169  -0.000135  -0.006834  -0.130472   0.004862   0.449225
    16  C    0.003175  -0.000025  -0.101836   0.014951  -0.000160   0.490772
    17  H    0.001481  -0.000017  -0.007142  -0.000130  -0.000002  -0.037069
    18  C   -0.000004   0.000002   0.011592   0.005386  -0.000127  -0.051236
    19  H    0.000000   0.000000  -0.000273   0.000007   0.000001   0.004593
    20  C    0.000010   0.000001   0.007805  -0.000439   0.000004  -0.013630
    21  H    0.000001   0.000000  -0.000196   0.000005   0.000000   0.002527
    22  C    0.000000   0.000000   0.000053  -0.000079   0.000002  -0.037444
    23  H    0.000000   0.000000   0.000008   0.000003   0.000000   0.001020
    24  O    0.000326  -0.000130   0.001442   0.000079  -0.000001  -0.000173
    25  H   -0.000261  -0.000204  -0.001174  -0.002512   0.000018   0.000123
    26  C   -0.000042  -0.000015  -0.002837  -0.002156   0.000029  -0.023124
    27  H    0.000004  -0.000001   0.000788   0.000224   0.000002   0.000856
    28  H   -0.000139  -0.000012  -0.016031  -0.003398  -0.000017   0.006662
    29  H    0.000197   0.000214   0.001868   0.006405  -0.000135  -0.000899
    30  C    0.000099   0.003876   0.000153   0.000728   0.000489  -0.000005
    31  C    0.000005   0.000099   0.000062  -0.000044   0.000186   0.000001
    32  C    0.000000  -0.000008   0.000000  -0.000006   0.000016   0.000000
    33  C    0.000000  -0.000011  -0.000022  -0.000099  -0.000023   0.000002
    34  O    0.000002   0.008500   0.000057  -0.000066   0.000012  -0.000001
    35  H    0.000000   0.000000   0.000000   0.000000   0.000000   0.000000
    36  H    0.000000  -0.000005   0.000000   0.000000   0.000000   0.000000
    37  H    0.000000   0.000000   0.000000   0.000000   0.000000   0.000000
    38  H    0.000000   0.000000   0.000003  -0.000001   0.000001   0.000000
    39  H    0.000000   0.000004   0.000016   0.000562   0.000089  -0.000003
              13         14         15         16         17         18
     1  N   -0.000020  -0.000001   0.000011   0.000023   0.000005   0.000000
     2  C    0.000055   0.000000   0.000086  -0.000204  -0.000257   0.000002
     3  H    0.000001   0.000000   0.000002  -0.000018   0.000030   0.000000
     4  C    0.000010   0.000000  -0.000079   0.002943   0.000956  -0.000007
     5  O    0.000000   0.000000   0.000000  -0.004224   0.010223   0.000000
     6  C    0.004832  -0.000094   0.009828  -0.011300   0.002204  -0.000173
     7  H   -0.000085   0.000003  -0.000169   0.003175   0.001481  -0.000004
     8  H    0.000038  -0.000004  -0.000135  -0.000025  -0.000017   0.000002
     9  C   -0.056414   0.004412  -0.006834  -0.101836  -0.007142   0.011592
    10  C    0.306950  -0.031935  -0.130472   0.014951  -0.000130   0.005386
    11  H   -0.046733  -0.002276   0.004862  -0.000160  -0.000002  -0.000127
    12  C   -0.062926   0.007211   0.449225   0.490772  -0.037069  -0.051236
    13  N    6.918178   0.358758   0.266172   0.010900  -0.000115  -0.090060
    14  H    0.358758   0.435934  -0.030762  -0.000120   0.000004  -0.004749
    15  C    0.266172  -0.030762   4.796290  -0.065212   0.005116   0.487988
    16  C    0.010900  -0.000120  -0.065212   5.053909   0.361164  -0.054351
    17  H   -0.000115   0.000004   0.005116   0.361164   0.585869   0.000443
    18  C   -0.090060  -0.004749   0.487988  -0.054351   0.000443   4.972465
    19  H   -0.006138   0.002687  -0.038653   0.000518   0.000016   0.358262
    20  C   -0.000160   0.000000  -0.042162   0.508878  -0.037764  -0.031901
    21  H    0.000003   0.000000   0.001053  -0.035111  -0.005300   0.004642
    22  C    0.005288  -0.000084  -0.007123  -0.027921   0.004272   0.530518
    23  H   -0.000114  -0.000002   0.002888   0.004534  -0.000167  -0.037871
    24  O    0.000007   0.000000   0.000045   0.000743  -0.000369   0.000000
    25  H    0.000007  -0.000002   0.000056   0.000014   0.000002   0.000000
    26  C    0.000275  -0.000024  -0.003435  -0.009739   0.000081   0.000391
    27  H   -0.000116   0.000001   0.000068   0.000159   0.000004  -0.000002
    28  H    0.000362  -0.000020   0.000024   0.002972   0.000136  -0.000051
    29  H    0.000508   0.000019  -0.000610   0.000324  -0.000004  -0.000064
    30  C   -0.000004   0.000000  -0.000003   0.000000   0.000000   0.000000
    31  C    0.000000   0.000000   0.000000   0.000000   0.000000   0.000000
    32  C    0.000000   0.000000   0.000000   0.000000   0.000000   0.000000
    33  C   -0.000002   0.000000   0.000000   0.000000   0.000000   0.000000
    34  O    0.000000   0.000000   0.000000   0.000000   0.000000   0.000000
    35  H    0.000000   0.000000   0.000000   0.000000   0.000000   0.000000
    36  H    0.000000   0.000000   0.000000   0.000000   0.000000   0.000000
    37  H    0.000000   0.000000   0.000000   0.000000   0.000000   0.000000
    38  H    0.000000   0.000000   0.000000   0.000000   0.000000   0.000000
    39  H    0.000000   0.000000  -0.000004   0.000000   0.000000   0.000000
              19         20         21         22         23         24
     1  N    0.000000   0.000001   0.000000   0.000000   0.000000   0.004078
     2  C    0.000000  -0.000017   0.000000   0.000000   0.000000  -0.115761
     3  H    0.000000   0.000000   0.000000   0.000000   0.000000   0.002887
     4  C    0.000000  -0.000034   0.000001  -0.000001   0.000000   0.266549
     5  O    0.000000   0.000061  -0.000004   0.000001   0.000000  -0.070846
     6  C    0.000001   0.000060   0.000000   0.000002   0.000000   0.000193
     7  H    0.000000   0.000010   0.000001   0.000000   0.000000   0.000326
     8  H    0.000000   0.000001   0.000000   0.000000   0.000000  -0.000130
     9  C   -0.000273   0.007805  -0.000196   0.000053   0.000008   0.001442
    10  C    0.000007  -0.000439   0.000005  -0.000079   0.000003   0.000079
    11  H    0.000001   0.000004   0.000000   0.000002   0.000000  -0.000001
    12  C    0.004593  -0.013630   0.002527  -0.037444   0.001020  -0.000173
    13  N   -0.006138  -0.000160   0.000003   0.005288  -0.000114   0.000007
    14  H    0.002687   0.000000   0.000000  -0.000084  -0.000002   0.000000
    15  C   -0.038653  -0.042162   0.001053  -0.007123   0.002888   0.000045
    16  C    0.000518   0.508878  -0.035111  -0.027921   0.004534   0.000743
    17  H    0.000016  -0.037764  -0.005300   0.004272  -0.000167  -0.000369
    18  C    0.358262  -0.031901   0.004642   0.530518  -0.037871   0.000000
    19  H    0.638890   0.004351  -0.000175  -0.038286  -0.005928   0.000000
    20  C    0.004351   4.849634   0.368428   0.518763  -0.038169  -0.000046
    21  H   -0.000175   0.368428   0.621988  -0.040085  -0.005798   0.000000
    22  C   -0.038286   0.518763  -0.040085   4.830458   0.366952   0.000001
    23  H   -0.005928  -0.038169  -0.005798   0.366952   0.627635   0.000000
    24  O    0.000000  -0.000046   0.000000   0.000001   0.000000   8.255720
    25  H    0.000000   0.000000   0.000000   0.000000   0.000000   0.018080
[...]
 0.00011591,0.22636943,-0.00058822,-0.00075356,0.00079994,0.00034612,-0
 .00068794,-0.00008108,0.00004161,0.00001859,-0.00003084,0.00009425,-0.
 00003843,0.00003919,-0.00003152,0.00000765,-0.00000986,-0.00019944,-0.
 00002804,0.00008523,0.00001219,-0.00006289,0.00002832,-0.00000586,0.00
 000615,-0.00000760,0.00000679,0.00002603,0.00003883,-0.00004145,0.0000
 2723,0.00001346,-0.00000799,-0.00000383,0.00001037,0.00002375,-0.00000
 530,-0.00000594,0.00002776,-0.00003964,-0.00004229,-0.00001632,-0.0000
 1046,0.00000189,-0.00000796,-0.00000303,-0.00000268,-0.00000352,-0.000
 00068,0.00000351,0.00000446,0.00000297,-0.00000142,0.00000151,-0.00000
 074,-0.00000114,0.00000037,-0.00000282,-0.00000179,0.00000252,0.000001
 99,0.00000196,0.00000050,0.00000050,-0.00000029,0.00000119,-0.00000061
 ,-0.00000045,-0.00000015,-0.00000079,-0.00000061,-0.00003224,-0.000007
 71,-0.00005092,-0.00015829,0.00031077,0.00000798,0.00001492,0.00000575
 ,0.00002368,-0.00000283,0.00000054,-0.00000509,-0.00000348,-0.00000080
 ,-0.00000264,-0.00000550,-0.00000107,-0.00000370,-0.00583869,0.0085350
 1,-0.00401270,-0.01250268,0.00153824,0.00935265,-0.07380964,-0.0670588
 6,0.04604978,0.00330972,-0.00571181,0.00197386,0.00088378,-0.00047896,
 0.00033792,0.08463014,0.05952826,-0.00049966,-0.00004390,0.00089701,-0
 .00022650,0.00000501,-0.00005219,-0.00004720,0.00000014,0.00000480,-0.
 00008871,-0.00000259,0.00004548,0.00001383,0.00000340,-0.00001022,0.00
 001946,0.00000311,-0.00002486,0.00000259,0.00000963,-0.00000117,-0.000
 00170,-0.00003166,0.00001775,0.00000062,-0.00000752,-0.00001312,0.0000
 1515,-0.00001483,-0.00001475,0.00000797,-0.00000807,-0.00000324,-0.000
 01247,-0.00000369,-0.00000254,0.00000160,0.00002571,0.00001554,0.00000
 814,-0.00000284,0.00000300,-0.00000619,0.00000954,0.00000901,-0.000003
 21,0.00000153,-0.00000135,-0.00000277,-0.00000279,0.00000069,-0.000001
 77,-0.00000377,-0.00000448,-0.00000140,0.00000145,0.00000232,-0.000001
 22,0.00000313,0.00000175,0.00000204,0.00000008,0.00000074,0.00000483,0
 .00000149,0.00000010,0.00000139,0.00000182,0.00000187,0.00004366,0.000
 00723,0.00002849,0.00007300,-0.00000053,0.00009995,-0.00002150,-0.0000
 0612,-0.00001851,-0.00000061,-0.00000028,0.00000174,0.00000429,-0.0000
 0023,0.00000102,0.00000381,0.00000182,0.00000142,-0.00085680,-0.002908
 47,-0.00343662,-0.01148999,-0.00557761,0.00920532,0.12832967,0.0484059
 7,-0.15330682,-0.00157704,0.00054266,0.00104058,0.00155410,0.00118739,
 0.00134976,-0.13580546,-0.05055894,0.15247505,0.00131070,0.00070685,0.
 00120443,-0.00008549,-0.00022137,0.00030151,-0.00011171,-0.00001629,-0
 .00003418,-0.00018839,-0.00000044,-0.00022680,0.00015704,0.00003502,0.
 00005917,0.00001149,-0.00004037,-0.00003891,0.00000895,0.00003310,0.00
 000184,0.00000236,-0.00006700,0.00004105,-0.00000353,-0.00002926,-0.00
 004812,0.00005582,-0.00006744,-0.00004308,0.00001249,-0.00000529,-0.00
 001506,-0.00004409,0.00000081,0.00000014,-0.00002719,0.00007736,0.0000
 9379,0.00001801,0.00001650,-0.00000771,-0.00000068,0.00002030,0.000012
 06,0.00000561,0.00000351,-0.00000586,-0.00000898,-0.00000812,0.0000032
 9,-0.00000327,-0.00000191,0.00000124,-0.00000212,0.00000614,0.00000356
 ,-0.00000367,-0.00000055,-0.00000120,0.00000194,-0.00000030,0.00000100
 ,0.00000385,0.00000328,0.00000308,0.00000146,0.00000342,0.00000244,0.0
 0011576,0.00001467,0.00018624,0.00027683,0.00019259,-0.00007397,-0.000
 05143,-0.00001489,-0.00007132,0.00000757,-0.00000142,0.00001581,0.0000
 1242,0.00000296,0.00000629,0.00001543,0.00000315,0.00000719,-0.0024869
 5,0.00185261,-0.00474497,0.00435993,-0.00440677,-0.02594440,-0.0529104
 3,-0.00872712,-0.00442107,-0.00095485,-0.00698484,0.00095982,0.0000480
 9,0.00064736,0.00241793,0.00375230,0.00377753,0.02049679,0.04693284,0.
 00045384,0.00061324,0.00060862,-0.00023467,0.00030136,0.00001500,-0.00
 006549,-0.00000267,0.00000683,-0.00014094,0.00003276,-0.00011098,0.000
 04395,-0.00001995,0.00003607,0.00006486,0.00002604,-0.00006367,0.00000
 237,0.00003018,-0.00001252,-0.00000441,-0.00003073,0.00002873,0.000010
 04,-0.00000752,-0.00000975,-0.00001895,-0.00002104,-0.00001503,0.00000
 236,-0.00001733,-0.00000916,-0.00000234,-0.00001846,-0.00001265,0.0000
 3275,0.00001567,0.00001288,-0.00000178,-0.00000559,-0.00000552,-0.0000
 2289,0.00002139,0.00001662,-0.00001155,-0.00000036,0.00000408,-0.00000
 236,-0.00000071,-0.00000353,-0.00000262,-0.00001142,-0.00000784,-0.000
 00238,0.00000273,0.00000123,0.00000276,0.00000764,0.00000965,0.0000051
 8,0.00000241,0.00000047,0.00001436,0.00000383,0.00000353,0.00000264,0.
 00000358,0.00000190,0.00005398,-0.00002314,0.00012506,0.00016893,0.000
 05695,-0.00002202,-0.00002084,0.00000787,-0.00003637,0.00000504,0.0000
 0421,0.00001200,0.00001032,0.00000055,0.00000173,0.00000325,-0.0000007
 4,0.00000510,0.00266271,-0.00642146,-0.00171571,-0.00049021,0.00224108
 ,-0.01573895,-0.00963777,-0.05072713,-0.04996306,-0.00721159,0.0088844
 2,-0.00134859,0.00075681,0.00014386,0.00149069,0.00011377,0.00427076,0
 .00898240,0.01309533,0.04155854,-0.00036088,-0.00031303,-0.00019076,0.
 00006562,-0.00001199,-0.00004609,0.00001217,0.00000531,0.00002726,0.00
 001906,0.00000606,-0.00001526,-0.00001463,-0.00000069,0.00000642,0.000
 00014,-0.00001360,0.00001839,0.00000189,-0.00000176,0.00000225,-0.0000
 0551,-0.00000215,0.00000360,0.00000207,0.00000160,0.00000450,-0.000017
 25,-0.00000851,-0.00000052,-0.00000365,-0.00000693,-0.00000287,0.00000
 354,0.00000146,0.00000050,0.00000379,-0.00000362,0.00000500,-0.0000017
 1,0.00000322,-0.00000528,0.00000312,0.00000353,0.00000089,0.00000088,-
 0.00000051,0.00000043,0.00000038,0.00000055,-0.00000018,-0.00000016,-0
 .00000030,0.00000072,0.00000022,0.00000044,-0.00000050,0.00000102,0.00
 000023,0.00000071,-0.00000042,0.00000014,-0.00000014,0.00000136,0.0000
 0051,0.00000108,-0.00000014,-0.00000030,-0.00000067,-0.00001938,0.0000
 0034,0.00001179,-0.00000499,-0.00000492,-0.00009332,0.00000863,0.00000
 078,0.00000375,0.00000187,-0.00000114,0.00000136,-0.00000304,-0.000000
 15,0.00000079,-0.00000095,-0.00000009,-0.00000025,0.00037895,0.0011286
 3,-0.00180942,-0.00085662,-0.00273280,-0.00938829,-0.01016185,-0.05271
 244,-0.33803786,-0.00013541,-0.00196560,0.00101830,0.00244691,0.001372
 22,0.00016057,-0.00252401,-0.00313404,-0.00842291,0.01162581,0.0584791
 5,0.35674950,-0.00000351,-0.00036967,0.00010271,0.00039555,0.00016135,
 -0.00008627,-0.00002664,-0.00003249,0.00004547,0.00019012,0.00002667,-
 0.00006887,-0.00017535,-0.00002804,0.00003538,-0.00007511,0.00001667,0
 .00003699,0.00000239,-0.00003883,0.00001246,0.00000554,0.00000517,-0.0
 0001096,0.00001879,0.00000225,0.00003362,-0.00004312,0.00003735,0.0000
 4363,-0.00001061,0.00001174,-0.00000460,0.00002046,0.00001105,0.000009
 00,0.00000149,-0.00005637,-0.00004656,-0.00001371,0.00000029,0.0000064
 3,0.00001421,-0.00001730,-0.00001685,0.00000622,-0.00000511,0.00000708
 ,0.00000797,0.00000948,-0.00000513,0.00000399,0.00001076,0.00000742,0.
 00000393,-0.00000582,-0.00000358,0.00000438,-0.00000731,-0.00000370,-0
 .00000392,-0.00000001,-0.00000126,-0.00001283,-0.00000275,-0.00000227,
 -0.00000320,-0.00000519,-0.00000336,-0.00014503,-0.00006215,-0.0000026
 8,0.00014809,0.00075511,0.00003686,0.00010704,0.00001931,0.00009906,0.
 00000684,0.00000378,-0.00000142,-0.00001821,-0.00000101,-0.00000356,-0
 .00002201,-0.00000748,-0.00000659,-0.00008834,-0.00092354,-0.00187838,
 0.00305828,0.00171735,-0.00182240,0.00058373,0.00023051,-0.00177409,-0
 .22285794,-0.07504323,0.10754438,0.00050542,0.00031639,0.00026288,0.00
 042595,0.00001298,0.00005767,0.00005660,0.00016735,0.00003368,0.238451
 78,-0.00023235,0.00030431,-0.00002410,0.00011377,0.00030971,0.00004653
 ,-0.00008532,-0.00002813,0.00007523,0.00007889,-0.00002874,0.00003461,
 -0.00004959,-0.00000241,-0.00001178,0.00001647,-0.00000740,-0.00003980
 ,-0.00001005,0.00000368,0.00000326,0.00000091,0.00000368,-0.00000628,0
 .00005824,-0.00003608,0.00000652,-0.00006093,-0.00003181,0.00005749,-0
 .00003356,0.00003032,-0.00003954,0.00000954,0.00002347,0.00001643,-0.0
 0000347,-0.00000616,0.00003153,-0.00002382,0.00001120,-0.00000047,0.00
 000309,-0.00002053,-0.00003075,0.00001987,-0.00000192,0.00000059,0.000
 00139,0.00000296,-0.00000052,0.00000942,0.00002315,0.00001926,0.000003
 00,-0.00000496,-0.00000382,0.00000080,-0.00001486,-0.00001177,-0.00000
 388,-0.00000132,-0.00000136,-0.00002383,-0.00000446,-0.00000183,-0.000
 00345,-0.00000320,-0.00000231,-0.00004988,0.00003858,-0.00003644,0.000
 80053,-0.00061563,0.00011315,0.00002625,0.00000066,0.00003072,-0.00000
 011,-0.00000445,-0.00000444,-0.00000915,0.00000038,-0.00000083,-0.0000
 0016,-0.00000002,-0.00000280,-0.00133498,0.00018938,-0.00166018,0.0061
 6043,0.00197988,-0.00360121,0.00076945,-0.00010769,-0.00059567,-0.0754
 9342,-0.07943863,0.04636776,0.00055348,0.00021160,-0.00025058,-0.00014
 199,0.00026619,0.00000481,0.00014166,-0.00013204,0.00011857,0.08297447
 ,0.08156770,0.00021671,0.00006756,0.00075672,-0.00006665,0.00004924,0.
 00039118,-0.00012890,-0.00004212,-0.00003099,-0.00010568,0.00002456,-0
 .00029851,0.00008234,0.00000870,0.00008476,0.00002546,-0.00001608,-0.0
 0002830,0.00000566,0.00002585,-0.00000574,0.00000602,-0.00004774,0.000
 02800,0.00000669,-0.00002832,-0.00002865,0.00001800,-0.00004332,-0.000
 02150,0.00001107,-0.00000878,-0.00001399,-0.00002714,0.00000154,0.0000
 0061,-0.00001215,0.00004598,0.00005822,0.00001158,0.00001341,-0.000005
 79,0.00000184,0.00001845,0.00000933,0.00000390,0.00000052,-0.00000062,
 -0.00000490,-0.00000265,-0.00000094,-0.00000221,-0.00000133,0.00000115
 ,-0.00000058,0.00000318,0.00000183,-0.00000012,-0.00000078,0.00000141,
 0.00000119,0.00000063,0.00000021,0.00000293,0.00000272,0.00000272,0.00
 000061,0.00000169,0.00000092,0.00004948,-0.00002074,0.00019042,0.00035
 888,0.00033578,-0.00055280,-0.00000404,0.00000204,-0.00002521,0.000009
 93,0.00000217,0.00001585,0.00000428,0.00000234,0.00000229,0.00000454,-
 0.00000136,0.00000459,-0.00432304,-0.00288720,-0.00312172,0.02697744,0
 .01142404,-0.01748339,0.00142050,0.00108089,0.00175005,0.10505817,0.04
 505446,-0.11118269,0.00177557,0.00053399,-0.00244318,-0.00118427,-0.00
 068701,-0.00003455,-0.00002682,0.00007414,0.00041376,-0.11489962,-0.04
 804499,0.12266175,0.00003984,-0.00026366,0.00055385,0.00007757,-0.0000
 3098,0.00020286,-0.00002236,-0.00001294,-0.00000541,-0.00004223,0.0000
 2106,-0.00007463,0.00005437,-0.00000640,0.00001981,-0.00001197,0.00002
 734,0.00000019,0.00001041,0.00000335,-0.00000130,0.00000124,-0.0000192
 8,0.00001859,0.00000466,0.00000030,-0.00000782,-0.00001005,-0.00000700
 ,-0.00000955,0.00000279,-0.00000880,0.00000775,0.00000268,-0.00001328,
 -0.00001040,0.00002388,0.00000577,0.00000186,-0.00000749,-0.00000839,-
 0.00000103,-0.00002132,0.00001025,0.00000856,-0.00000628,-0.00000144,0
 .00000235,-0.00000130,-0.00000095,-0.00000195,-0.00000125,-0.00000644,
 -0.00000225,-0.00000195,0.00000202,-0.00000020,0.00000283,0.00000471,0
 .00000733,0.00000326,0.00000180,-0.00000041,0.00000975,0.00000214,0.00
 000353,0.00000177,0.00000308,0.00000068,0.00010096,0.00004357,0.000040
 83,-0.00011515,-0.00000541,0.00060572,-0.00004283,0.00000474,-0.000066
 64,0.00000182,-0.00000002,0.00001208,0.00000927,0.00000097,0.00000238,
 0.00000849,0.00000153,0.00000702,-0.00115652,-0.00093122,0.00011814,-0
 .00094603,-0.00197839,-0.00333237,0.00091289,0.00065255,-0.00077718,-0
 .21842501,0.09261736,-0.07825306,0.00041003,0.00023253,-0.00018344,-0.
 00000780,0.00056158,-0.00006563,0.00014634,-0.00043970,-0.00010665,-0.
 01970664,0.01210812,-0.01006015,0.23632881,-0.00013676,0.00040485,-0.0
 0027844,-0.00036783,-0.00018414,-0.00004190,0.00005346,0.00004985,-0.0
 0007245,-0.00013336,-0.00000972,0.00039323,0.00018707,0.00003418,-0.00
 015479,0.00007097,-0.00003401,-0.00003950,-0.00000355,0.00004124,-0.00
 000035,-0.00000696,0.00000176,0.00000357,-0.00000706,-0.00003423,-0.00
 005172,0.00006568,-0.00008086,-0.00001333,-0.00001183,0.00001771,-0.00
 006049,-0.00004376,0.00002581,0.00001165,-0.00005911,0.00007460,0.0001
 0707,0.00002836,0.00003858,-0.00001256,0.00002852,-0.00001033,-0.00000
 465,0.00001052,0.00001008,-0.00001449,-0.00000963,-0.00001191,0.000011
 14,0.00000081,0.00001055,0.00000279,0.00000013,0.00000141,0.00000402,-
 0.00001353,-0.00000778,-0.00001579,-0.00000147,-0.00000384,0.00000214,
 -0.00001514,-0.00000307,-0.00000614,-0.00000095,0.00000018,0.00000283,
 0.00020188,0.00007873,-0.00026322,-0.00044187,-0.00126424,0.00127641,-
 0.00013407,-0.00003312,-0.00004787,-0.00003117,0.00000426,-0.00002102,
 0.00002917,0.00000346,-0.00000873,0.00002541,0.00000473,0.00000216,0.0
 0109137,0.00068909,0.00066337,-0.00857844,0.00409723,-0.00373370,-0.00
 006337,-0.00015782,-0.00130225,0.09214495,-0.09591704,0.04449222,-0.00
 030000,-0.00030023,-0.00028094,-0.00024679,0.00056063,-0.00009591,0.00
 030224,-0.00102313,-0.00011512,-0.00997174,0.00528320,-0.00565945,-0.1
 0120941,0.10175452,0.00122478,-0.00016784,0.00081041,0.00052102,0.0001
 7603,-0.00005433,-0.00006479,-0.00001340,0.00003302,0.00012720,0.00008
 037,-0.00017119,-0.00011376,-0.00003269,0.00005396,-0.00010251,-0.0000
 0536,0.00002936,0.00000473,-0.00004025,0.00001868,0.00000491,-0.000007
 92,0.00000244,0.00001332,0.00000528,0.00004134,-0.00004752,0.00002522,
 0.00001844,-0.00000765,-0.00000910,-0.00000900,0.00001680,0.00000172,0
 .00000361,0.00001393,-0.00004542,-0.00003488,-0.00000753,0.00000480,-0
 .00000492,0.00001449,0.00000070,-0.00000253,-0.00000221,-0.00000410,0.
 00000870,0.00000654,0.00000894,-0.00000644,0.00000099,0.00000013,-0.00
 000030,0.00000231,-0.00000260,-0.00000230,0.00000466,-0.00000139,0.000
 00232,-0.00000174,0.00000125,-0.00000093,-0.00000203,-0.00000090,-0.00
 000036,-0.00000139,-0.00000298,-0.00000254,-0.00013633,-0.00011935,0.0
 0004159,0.00037788,0.00156823,-0.00063790,0.00008893,0.00001880,0.0001
 1968,-0.00000266,0.00000587,-0.00000392,-0.00001038,0.00000149,-0.0000
 1059,-0.00002302,-0.00000977,-0.00001200,-0.00280775,-0.00113636,-0.00
 003071,-0.02782295,0.01269945,-0.01345840,0.00162715,0.00026184,-0.003
 89460,-0.08019469,0.04516698,-0.08496723,0.00087856,0.00011033,0.00037
 440,-0.00054796,0.00084580,-0.00006786,0.00018691,-0.00246648,0.000135
 51,0.01259944,-0.00826452,0.00647348,0.08938108,-0.04707446,0.09331805
 ,-0.00007185,-0.00013425,0.00017364,-0.00022356,-0.00017090,0.00005861
 ,0.00004885,0.00003705,-0.00005761,-0.00014700,0.00001135,0.00011053,0
 .00016272,0.00003193,-0.00005596,0.00004265,-0.00004346,-0.00000265,0.
 00000263,0.00002894,-0.00001200,-0.00000278,-0.00000988,0.00000517,-0.
 00009440,0.00001926,-0.00004199,0.00016695,-0.00000299,-0.00008201,0.0
 0001173,-0.00000930,-0.00003016,-0.00005382,0.00000078,-0.00000309,-0.
 00006510,0.00004318,0.00005246,0.00005000,0.00003515,-0.00001100,0.000
 02813,0.00000627,0.00002892,-0.00001047,0.00000799,-0.00001123,-0.0000
 0754,-0.00000944,0.00000694,-0.00001019,-0.00001233,-0.00001613,-0.000
 00172,0.00000527,0.00000629,-0.00001063,0.00000578,-0.00000028,0.00000
 219,-0.00000118,0.00000235,0.00000900,0.00000258,-0.00000265,0.0000016
 9,0.00000225,0.00000373,0.00010896,-0.00004051,-0.00004662,-0.00147380
 ,0.00042013,0.00117298,-0.00008828,-0.00001673,-0.00006605,-0.00001392
 ,0.00001213,-0.00000106,0.00002796,0.00000186,-0.00000296,0.00001333,0
 .00000023,0.00000775,0.00025396,0.00040401,0.00049773,-0.00148224,-0.0
 0422749,-0.00256563,0.00050196,-0.00015149,-0.00095897,-0.04809536,-0.
 01695534,-0.00054807,-0.00009863,-0.00011831,-0.00034342,0.00047162,-0
 .00049790,0.00006925,-0.00043107,0.00063790,-0.00039386,-0.00081259,-0
 .02628984,-0.00520652,0.00237250,0.02754724,0.00480128,0.04891810,-0.0
 0012106,0.00064284,0.00055384,0.00024708,0.00045544,0.00021985,-0.0001
 4745,-0.00005291,0.00011370,0.00009816,-0.00003059,-0.00017855,-0.0000
 7920,0.00000085,0.00006459,0.00002652,-0.00000809,-0.00005315,-0.00000
 652,0.00000483,-0.00000087,0.00000291,-0.00001667,0.00000608,-0.000049
 72,-0.00001344,0.00000123,0.00006181,0.00001831,-0.00004772,-0.0000182
 4,0.00000737,-0.00000659,0.00001497,0.00002942,0.00003520,-0.00005348,
 -0.00004878,0.00001500,0.00000007,0.00002573,-0.00002224,0.00005485,0.
 00000960,0.00000076,0.00000025,-0.00001024,0.00000143,0.00000003,0.000
 00381,-0.00000243,-0.00000600,-0.00000266,0.00000843,0.00000070,0.0000
 0597,-0.00000313,0.00000067,0.00000367,0.00000745,-0.00000442,0.000000
 65,-0.00000200,0.00000815,-0.00000296,0.00000161,-0.00000126,-0.000001
 14,-0.00000312,-0.00008018,0.00004557,0.00009986,0.00111518,-0.0002307
 4,-0.00016235,0.00005469,0.00000229,0.00001611,0.00001505,-0.00001605,
 0.00000660,-0.00002014,0.00000060,0.00000862,-0.00000106,0.00000193,-0
 .00000423,-0.00250719,-0.00122577,-0.00036459,-0.00179414,-0.00278278,
 -0.00356679,0.00134028,0.00037922,-0.00087336,-0.01700589,-0.29571168,
 -0.03944436,0.00074195,0.00042103,0.00011803,0.00029863,-0.00020926,0.
 00007146,-0.00034302,0.00023433,-0.00009304,0.00008799,-0.00975962,-0.
 00128201,-0.00136104,-0.01411122,-0.00157835,0.01943009,0.32194116,0.0
 0069869,0.00090736,0.00029869,0.00025597,0.00015547,0.00000622,-0.0000
 7450,0.00000218,0.00006069,0.00009270,0.00000188,0.00009308,-0.0000610
 7,0.00000521,-0.00002963,-0.00003137,0.00003833,-0.00002935,-0.0000142
 1,-0.00000372,0.00002663,0.00000199,-0.00001111,-0.00000581,0.00019211
 ,-0.00013584,-0.00005469,-0.00015012,-0.00011910,0.00023311,-0.0000607
 5,0.00009976,-0.00018635,-0.00003682,0.00005165,0.00002207,-0.00001108
 ,0.00008869,0.00008037,-0.00000171,0.00002377,0.00001344,-0.00003428,-
 0.00007928,-0.00007080,0.00005037,0.00000291,-0.00000789,-0.00000015,0
 .00000268,0.00000233,0.00002571,0.00006044,0.00003657,0.00000759,-0.00
 001200,-0.00000464,0.00000073,-0.00004469,-0.00003828,-0.00001010,-0.0
 0000522,-0.00000188,-0.00007305,-0.00001077,-0.00000856,-0.00000708,-0
 .00000724,-0.00000328,-0.00003742,0.00001318,-0.00010023,0.00142377,-0
 .00037811,0.00007914,0.00003026,-0.00000817,0.00006607,-0.00000754,0.0
 0000764,-0.00001262,-0.00000789,0.00000124,-0.00000877,-0.00000471,-0.
 00000436,-0.00000169,-0.00201210,-0.00127800,0.00020239,-0.00431044,-0
 .03358431,-0.00589097,0.00149928,0.00017549,-0.00390470,-0.00127783,-0
 .04173091,-0.05350544,0.00040109,0.00067710,0.00018000,0.00037617,-0.0
 0097331,0.00021181,-0.00192793,0.00162596,-0.00055277,-0.00033202,0.01
 570954,0.00242932,0.00196545,0.01239664,0.00188796,0.00346227,0.046339
 02,0.05848850||-0.00000020,-0.00000037,0.00000019,0.00000021,-0.000000
 46,0.00000091,0.00000088,-0.00000069,0.00000096,-0.00000008,-0.0000005
 1,0.00000124,0.00000046,-0.00000072,0.00000165,0.00000110,-0.00000057,
 0.00000020,0.00000128,-0.00000100,0.00000034,0.00000123,-0.00000089,-0
 .00000025,0.00000004,-0.00000038,-0.00000054,0.00000087,-0.00000032,-0
 .00000118,0.00000069,0.00000008,-0.00000148,0.00000048,-0.00000014,-0.
 00000041,0.00000031,0.00000034,-0.00000146,0.00000021,0.00000038,-0.00
 000211,0.00000009,0.00000022,-0.00000106,0.00000041,-0.00000045,0.0000
 0029,0.00000073,-0.00000069,0.00000073,-0.00000007,0.00000023,-0.00000
 104,-0.00000022,0.00000060,-0.00000166,0.00000024,-0.00000014,0.000000
 23,0.00000024,-0.00000033,0.00000066,-0.00000012,0.00000019,-0.0000004
 7,-0.00000020,0.00000031,-0.00000053,-0.00000050,0.00000005,0.00000118
 ,-0.00000029,0.00000028,0.00000017,-0.00000063,0.00000037,0.00000184,-
 0.00000143,0.00000053,0.00000154,-0.00000093,-0.00000005,0.00000232,-0
 .00000077,0.00000003,0.00000150,0.00000014,0.00000015,0.00000045,-0.00
 000025,0.00000027,-0.00000041,-0.00000005,0.00000024,-0.00000053,-0.00
 000099,0.00000090,-0.00000048,0.00000072,-0.00000067,-0.00000012,-0.00
 000052,0.00000059,-0.00000090,0.00000029,-0.00000008,-0.00000063,-0.00
 000126,0.00000107,-0.00000065,-0.00000125,0.00000083,0.00000023,-0.000
 00087,0.00000078,-0.00000073|||@


 ALL MEN WHO EXPLORE
 DEPLORE
 THAT FRUSTRATING HURDLE
 THE GIRDLE.

         -- COLIN FLETCHER
 Job cpu time:       0 days  0 hours 30 minutes  0.0 seconds.
 File lengths (MBytes):  RWF=    645 Int=      0 D2E=      0 Chk=     14 Scr=      1
 Normal termination of Gaussian 09 at Wed Feb 07 22:43:24 2024.
