 Entering Link 1 = C:\G09W\l1.exe PID=     60428.
  
 Copyright (c) 1988,1990,1992,1993,1995,1998,2003,2009,2013,
            Gaussian, Inc.  All Rights Reserved.
  
 This is part of the Gaussian(R) 09 program.  It is based on
 the Gaussian(R) 03 system (copyright 2003, Gaussian, Inc.),
 the Gaussian(R) 98 system (copyright 1998, Gaussian, Inc.),
 the Gaussian(R) 94 system (copyright 1995, Gaussian, Inc.),
 the Gaussian 92(TM) system (copyright 1992, Gaussian, Inc.),
 the Gaussian 90(TM) system (copyright 1990, Gaussian, Inc.),
 the Gaussian 88(TM) system (copyright 1988, Gaussian, Inc.),
 the Gaussian 86(TM) system (copyright 1986, Carnegie Mellon
 University), and the Gaussian 82(TM) system (copyright 1983,
 Carnegie Mellon University). Gaussian is a federally registered
 trademark of Gaussian, Inc.
  
 This software contains proprietary and confidential information,
 including trade secrets, belonging to Gaussian, Inc.
  
 This software is provided under written license and may be
 used, copied, transmitted, or stored only in accord with that
 written license.
  
 The following legend is applicable only to US Government
 contracts under FAR:
  
                    RESTRICTED RIGHTS LEGEND
  
 Use, reproduction and disclosure by the US Government is
 subject to restrictions as set forth in subparagraphs (a)
 and (c) of the Commercial Computer Software - Restricted
 Rights clause in FAR 52.227-19.
  
 Gaussian, Inc.
 340 Quinnipiac St., Bldg. 40, Wallingford CT 06492
  
  
 ---------------------------------------------------------------
 Warning -- This program may not be used in any manner that
 competes with the business of Gaussian, Inc. or will provide
 assistance to any competitor of Gaussian, Inc.  The licensee
 of this program is prohibited from giving any competitor of
 Gaussian, Inc. access to this program.  By using this program,
 the user acknowledges that Gaussian, Inc. is engaged in the
 business of creating and licensing software in the field of
 computational chemistry and represents and warrants to the
 licensee that it is not a competitor of Gaussian, Inc. and that
 it will not use this program in any manner prohibited above.
 ---------------------------------------------------------------
  

 Cite this work as:
 Gaussian 09, Revision D.01,
 M. J. Frisch, G. W. Trucks, H. B. Schlegel, G. E. Scuseria, 
 M. A. Robb, J. R. Cheeseman, G. Scalmani, V. Barone, B. Mennucci, 
 G. A. Petersson, H. Nakatsuji, M. Caricato, X. Li, H. P. Hratchian, 
 A. F. Izmaylov, J. Bloino, G. Zheng, J. L. Sonnenberg, M. Hada, 
 M. Ehara, K. Toyota, R. Fukuda, J. Hasegawa, M. Ishida, T. Nakajima, 
 Y. Honda, O. Kitao, H. Nakai, T. Vreven, J. A. Montgomery, Jr., 
 J. E. Peralta, F. Ogliaro, M. Bearpark, J. J. Heyd, E. Brothers, 
 K. N. Kudin, V. N. Staroverov, T. Keith, R. Kobayashi, J. Normand, 
 K. Raghavachari, A. Rendell, J. C. Burant, S. S. Iyengar, J. Tomasi, 
 M. Cossi, N. Rega, J. M. Millam, M. Klene, J. E. Knox, J. B. Cross, 
 V. Bakken, C. Adamo, J. Jaramillo, R. Gomperts, R. E. Stratmann, 
 O. Yazyev, A. J. Austin, R. Cammi, C. Pomelli, J. W. Ochterski, 
 R. L. Martin, K. Morokuma, V. G. Zakrzewski, G. A. Voth, 
 P. Salvador, J. J. Dannenberg, S. Dapprich, A. D. Daniels, 
 O. Farkas, J. B. Foresman, J. V. Ortiz, J. Cioslowski, 
 and D. J. Fox, Gaussian, Inc., Wallingford CT, 2013.
 
 ******************************************
 Gaussian 09:  IA32W-G09RevD.01 24-Apr-2013
                25-Jan-2024 
 ******************************************
 %nprocshared=8
 Will use up to    8 processors via shared memory.
 %chk=Preview_31ihs.chk
 -------------------------------------------------------------
 #p opt=tight freq b3lyp/6-31g(d) guess=save geom=connectivity
 -------------------------------------------------------------
 1/7=10,14=-1,18=20,19=15,26=3,38=1,57=2/1,3;
 2/9=110,12=2,17=6,18=5,40=1/2;
 3/5=1,6=6,7=1,11=2,16=1,25=1,30=1,71=1,74=-5/1,2,3;
 4//1;
 5/5=2,38=5/2;
 6/7=2,8=2,9=2,10=2,28=1/1;
 7//1,2,3,16;
 1/7=10,14=-1,18=20,19=15,26=3/3(2);
 2/9=110/2;
 99//99;
 2/9=110/2;
 3/5=1,6=6,7=1,11=2,16=1,25=1,30=1,71=1,74=-5/1,2,3;
 4/5=5,16=3,69=1/1;
 5/5=2,38=5/2;
 7//1,2,3,16;
 1/7=10,14=-1,18=20,19=15,26=3/3(-5);
 2/9=110/2;
 6/7=2,8=2,9=2,10=2,19=2,28=1/1;
 99/9=1/99;
 Leave Link    1 at Thu Jan 25 18:11:54 2024, MaxMem=           0 cpu:         0.0
 (Enter C:\G09W\l101.exe)
 --------------------------------
 MATrp OptFreq tight B3LYP/6-31Gd
 --------------------------------
 Symbolic Z-matrix:
 Charge =  0 Multiplicity = 1
 N                     1.89042   0.43519   0.00468 
 C                     1.02163   1.1257   -0.92808 
 H                     1.65812   1.69334  -1.61331 
 C                     0.10842   2.1259   -0.23426 
 O                    -0.54394   2.95334  -0.83323 
 C                     0.1756    0.14839  -1.80787 
 H                    -0.41602   0.75942  -2.49884 
 H                     0.90047  -0.41104  -2.40722 
 C                    -0.70243  -0.79536  -1.03976 
 C                    -0.36646  -2.07065  -0.65473 
 H                     0.54162  -2.62674  -0.84573 
 C                    -2.04071  -0.56322  -0.54193 
 N                    -1.4032   -2.64295   0.0579 
 H                    -1.42014  -3.59094   0.3998 
 C                    -2.44903  -1.74594   0.13628 
 C                    -2.942     0.51597  -0.61602 
 H                    -2.66292   1.43295  -1.12659 
 C                    -3.70657  -1.87218   0.73593 
 H                    -3.99885  -2.78546   1.24821 
 C                    -4.1925    0.39383  -0.02151 
 H                    -4.89543   1.22064  -0.07837 
 C                    -4.57117  -0.78753   0.64901 
 H                    -5.55672  -0.85329   1.1019 
 O                     0.06513   1.96078   1.10446 
 H                     1.54001   0.28371   0.93777 
 C                    -0.86409   2.8089    1.80613 
 H                    -0.69935   2.6083    2.86495 
 H                    -0.67135   3.85865   1.57443 
 H                    -1.88726   2.55219   1.52065 
 C                     3.09614  -0.0736   -0.39147 
 C                     3.89039  -0.78594   0.67764 
 C                     5.07278  -1.29611   0.31686 
 C                     3.34479  -0.8974    2.08133 
 O                     3.85441  -0.17703  -1.39178 
 H                     5.70813  -1.82104   1.02491 
 H                     5.06874  -0.95983  -0.85951 
 H                     4.044    -1.43599   2.72729 
 H                     3.17194   0.08961   2.53059 
 H                     2.38899  -1.43883   2.10637 
 
 NAtoms=     39 NQM=       39 NQMF=       0 NMMI=      0 NMMIF=      0
                NMic=       0 NMicF=      0.
                    Isotopes and Nuclear Properties:
 (Nuclear quadrupole moments (NQMom) in fm**2, nuclear magnetic moments (NMagM)
  in nuclear magnetons)

  Atom         1           2           3           4           5           6           7           8           9          10
 IAtWgt=          14          12           1          12          16          12           1           1          12          12
 AtmWgt=  14.0030740  12.0000000   1.0078250  12.0000000  15.9949146  12.0000000   1.0078250   1.0078250  12.0000000  12.0000000
 NucSpn=           2           0           1           0           0           0           1           1           0           0
 AtZEff=   0.0000000   0.0000000   0.0000000   0.0000000   0.0000000   0.0000000   0.0000000   0.0000000   0.0000000   0.0000000
 NQMom=    2.0440000   0.0000000   0.0000000   0.0000000   0.0000000   0.0000000   0.0000000   0.0000000   0.0000000   0.0000000
 NMagM=    0.4037610   0.0000000   2.7928460   0.0000000   0.0000000   0.0000000   2.7928460   2.7928460   0.0000000   0.0000000
 AtZNuc=   7.0000000   6.0000000   1.0000000   6.0000000   8.0000000   6.0000000   1.0000000   1.0000000   6.0000000   6.0000000

  Atom        11          12          13          14          15          16          17          18          19          20
 IAtWgt=           1          12          14           1          12          12           1          12           1          12
 AtmWgt=   1.0078250  12.0000000  14.0030740   1.0078250  12.0000000  12.0000000   1.0078250  12.0000000   1.0078250  12.0000000
 NucSpn=           1           0           2           1           0           0           1           0           1           0
 AtZEff=   0.0000000   0.0000000   0.0000000   0.0000000   0.0000000   0.0000000   0.0000000   0.0000000   0.0000000   0.0000000
 NQMom=    0.0000000   0.0000000   2.0440000   0.0000000   0.0000000   0.0000000   0.0000000   0.0000000   0.0000000   0.0000000
 NMagM=    2.7928460   0.0000000   0.4037610   2.7928460   0.0000000   0.0000000   2.7928460   0.0000000   2.7928460   0.0000000
 AtZNuc=   1.0000000   6.0000000   7.0000000   1.0000000   6.0000000   6.0000000   1.0000000   6.0000000   1.0000000   6.0000000

  Atom        21          22          23          24          25          26          27          28          29          30
 IAtWgt=           1          12           1          16           1          12           1           1           1          12
 AtmWgt=   1.0078250  12.0000000   1.0078250  15.9949146   1.0078250  12.0000000   1.0078250   1.0078250   1.0078250  12.0000000
 NucSpn=           1           0           1           0           1           0           1           1           1           0
 AtZEff=   0.0000000   0.0000000   0.0000000   0.0000000   0.0000000   0.0000000   0.0000000   0.0000000   0.0000000   0.0000000
 NQMom=    0.0000000   0.0000000   0.0000000   0.0000000   0.0000000   0.0000000   0.0000000   0.0000000   0.0000000   0.0000000
 NMagM=    2.7928460   0.0000000   2.7928460   0.0000000   2.7928460   0.0000000   2.7928460   2.7928460   2.7928460   0.0000000
 AtZNuc=   1.0000000   6.0000000   1.0000000   8.0000000   1.0000000   6.0000000   1.0000000   1.0000000   1.0000000   6.0000000

  Atom        31          32          33          34          35          36          37          38          39
 IAtWgt=          12          12          12          16           1           1           1           1           1
 AtmWgt=  12.0000000  12.0000000  12.0000000  15.9949146   1.0078250   1.0078250   1.0078250   1.0078250   1.0078250
 NucSpn=           0           0           0           0           1           1           1           1           1
 AtZEff=   0.0000000   0.0000000   0.0000000   0.0000000   0.0000000   0.0000000   0.0000000   0.0000000   0.0000000
 NQMom=    0.0000000   0.0000000   0.0000000   0.0000000   0.0000000   0.0000000   0.0000000   0.0000000   0.0000000
 NMagM=    0.0000000   0.0000000   0.0000000   0.0000000   2.7928460   2.7928460   2.7928460   2.7928460   2.7928460
 AtZNuc=   6.0000000   6.0000000   6.0000000   8.0000000   1.0000000   1.0000000   1.0000000   1.0000000   1.0000000
 Leave Link  101 at Thu Jan 25 18:11:54 2024, MaxMem=    33554432 cpu:         0.0
 (Enter C:\G09W\l103.exe)

 GradGradGradGradGradGradGradGradGradGradGradGradGradGradGradGradGradGrad
 Berny optimization.
 Initialization pass.
                           ----------------------------
                           !    Initial Parameters    !
                           ! (Angstroms and Degrees)  !
 --------------------------                            --------------------------
 ! Name  Definition              Value          Derivative Info.                !
 --------------------------------------------------------------------------------
 ! R1    R(1,2)                  1.4497         estimate D2E/DX2                !
 ! R2    R(1,25)                 1.0082         estimate D2E/DX2                !
 ! R3    R(1,30)                 1.3673         estimate D2E/DX2                !
 ! R4    R(2,3)                  1.094          estimate D2E/DX2                !
 ! R5    R(2,4)                  1.5218         estimate D2E/DX2                !
 ! R6    R(2,6)                  1.5636         estimate D2E/DX2                !
 ! R7    R(4,5)                  1.212          estimate D2E/DX2                !
 ! R8    R(4,24)                 1.3496         estimate D2E/DX2                !
 ! R9    R(6,7)                  1.0958         estimate D2E/DX2                !
 ! R10   R(6,8)                  1.0944         estimate D2E/DX2                !
 ! R11   R(6,9)                  1.5005         estimate D2E/DX2                !
 ! R12   R(9,10)                 1.3739         estimate D2E/DX2                !
 ! R13   R(9,12)                 1.4466         estimate D2E/DX2                !
 ! R14   R(10,11)                1.0818         estimate D2E/DX2                !
 ! R15   R(10,13)                1.3821         estimate D2E/DX2                !
 ! R16   R(12,15)                1.4232         estimate D2E/DX2                !
 ! R17   R(12,16)                1.408          estimate D2E/DX2                !
 ! R18   R(13,14)                1.0079         estimate D2E/DX2                !
 ! R19   R(13,15)                1.38           estimate D2E/DX2                !
 ! R20   R(15,18)                1.3989         estimate D2E/DX2                !
 ! R21   R(16,17)                1.086          estimate D2E/DX2                !
 ! R22   R(16,20)                1.39           estimate D2E/DX2                !
 ! R23   R(18,19)                1.0872         estimate D2E/DX2                !
 ! R24   R(18,22)                1.3898         estimate D2E/DX2                !
 ! R25   R(20,21)                1.0867         estimate D2E/DX2                !
 ! R26   R(20,22)                1.4102         estimate D2E/DX2                !
 ! R27   R(22,23)                1.0866         estimate D2E/DX2                !
 ! R28   R(24,26)                1.4405         estimate D2E/DX2                !
 ! R29   R(26,27)                1.0902         estimate D2E/DX2                !
 ! R30   R(26,28)                1.0922         estimate D2E/DX2                !
 ! R31   R(26,29)                1.0928         estimate D2E/DX2                !
 ! R32   R(30,31)                1.5104         estimate D2E/DX2                !
 ! R33   R(30,34)                1.2595         estimate D2E/DX2                !
 ! R34   R(31,32)                1.3373         estimate D2E/DX2                !
 ! R35   R(31,33)                1.5101         estimate D2E/DX2                !
 ! R36   R(32,35)                1.0865         estimate D2E/DX2                !
 ! R37   R(32,36)                1.2235         estimate D2E/DX2                !
 ! R38   R(33,37)                1.0937         estimate D2E/DX2                !
 ! R39   R(33,38)                1.0981         estimate D2E/DX2                !
 ! R40   R(33,39)                1.0988         estimate D2E/DX2                !
 ! R41   R(34,36)                1.5397         estimate D2E/DX2                !
 ! A1    A(2,1,25)             117.308          estimate D2E/DX2                !
 ! A2    A(2,1,30)             121.2844         estimate D2E/DX2                !
 ! A3    A(25,1,30)            121.2475         estimate D2E/DX2                !
 ! A4    A(1,2,3)              107.5463         estimate D2E/DX2                !
 ! A5    A(1,2,4)              112.2934         estimate D2E/DX2                !
 ! A6    A(1,2,6)              112.8654         estimate D2E/DX2                !
 ! A7    A(3,2,4)              107.0783         estimate D2E/DX2                !
 ! A8    A(3,2,6)              106.6588         estimate D2E/DX2                !
 ! A9    A(4,2,6)              110.0381         estimate D2E/DX2                !
 ! A10   A(2,4,5)              123.1202         estimate D2E/DX2                !
 ! A11   A(2,4,24)             113.0226         estimate D2E/DX2                !
 ! A12   A(5,4,24)             123.8134         estimate D2E/DX2                !
 ! A13   A(2,6,7)              107.3605         estimate D2E/DX2                !
 ! A14   A(2,6,8)              105.6208         estimate D2E/DX2                !
 ! A15   A(2,6,9)              114.9414         estimate D2E/DX2                !
 ! A16   A(7,6,8)              107.2966         estimate D2E/DX2                !
 ! A17   A(7,6,9)              110.9504         estimate D2E/DX2                !
 ! A18   A(8,6,9)              110.2691         estimate D2E/DX2                !
 ! A19   A(6,9,10)             125.7452         estimate D2E/DX2                !
 ! A20   A(6,9,12)             128.0651         estimate D2E/DX2                !
 ! A21   A(10,9,12)            106.1853         estimate D2E/DX2                !
 ! A22   A(9,10,11)            129.2678         estimate D2E/DX2                !
 ! A23   A(9,10,13)            110.2085         estimate D2E/DX2                !
 ! A24   A(11,10,13)           120.5198         estimate D2E/DX2                !
 ! A25   A(9,12,15)            107.2204         estimate D2E/DX2                !
 ! A26   A(9,12,16)            134.1927         estimate D2E/DX2                !
 ! A27   A(15,12,16)           118.5792         estimate D2E/DX2                !
 ! A28   A(10,13,14)           125.2381         estimate D2E/DX2                !
 ! A29   A(10,13,15)           109.1835         estimate D2E/DX2                !
 ! A30   A(14,13,15)           125.4048         estimate D2E/DX2                !
 ! A31   A(12,15,13)           107.1977         estimate D2E/DX2                !
 ! A32   A(12,15,18)           122.4915         estimate D2E/DX2                !
 ! A33   A(13,15,18)           130.3106         estimate D2E/DX2                !
 ! A34   A(12,16,17)           120.4915         estimate D2E/DX2                !
 ! A35   A(12,16,20)           119.0802         estimate D2E/DX2                !
 ! A36   A(17,16,20)           120.4278         estimate D2E/DX2                !
 ! A37   A(15,18,19)           121.2967         estimate D2E/DX2                !
 ! A38   A(15,18,22)           117.5164         estimate D2E/DX2                !
 ! A39   A(19,18,22)           121.1866         estimate D2E/DX2                !
 ! A40   A(16,20,21)           119.5178         estimate D2E/DX2                !
 ! A41   A(16,20,22)           121.2351         estimate D2E/DX2                !
 ! A42   A(21,20,22)           119.2461         estimate D2E/DX2                !
 ! A43   A(18,22,20)           121.0968         estimate D2E/DX2                !
 ! A44   A(18,22,23)           119.4026         estimate D2E/DX2                !
 ! A45   A(20,22,23)           119.5002         estimate D2E/DX2                !
 ! A46   A(4,24,26)            115.5837         estimate D2E/DX2                !
 ! A47   A(24,26,27)           105.5016         estimate D2E/DX2                !
 ! A48   A(24,26,28)           110.4092         estimate D2E/DX2                !
 ! A49   A(24,26,29)           109.7796         estimate D2E/DX2                !
 ! A50   A(27,26,28)           110.8694         estimate D2E/DX2                !
 ! A51   A(27,26,29)           110.6077         estimate D2E/DX2                !
 ! A52   A(28,26,29)           109.6091         estimate D2E/DX2                !
 ! A53   A(1,30,31)            115.7299         estimate D2E/DX2                !
 ! A54   A(1,30,34)            142.3315         estimate D2E/DX2                !
 ! A55   A(31,30,34)           101.9384         estimate D2E/DX2                !
 ! A56   A(30,31,32)           116.994          estimate D2E/DX2                !
 ! A57   A(30,31,33)           120.1837         estimate D2E/DX2                !
 ! A58   A(32,31,33)           122.8222         estimate D2E/DX2                !
 ! A59   A(31,32,35)           121.7021         estimate D2E/DX2                !
 ! A60   A(31,32,36)            98.7199         estimate D2E/DX2                !
 ! A61   A(35,32,36)           139.577          estimate D2E/DX2                !
 ! A62   A(31,33,37)           110.7538         estimate D2E/DX2                !
 ! A63   A(31,33,38)           111.7655         estimate D2E/DX2                !
 ! A64   A(31,33,39)           111.8284         estimate D2E/DX2                !
 ! A65   A(37,33,38)           107.555          estimate D2E/DX2                !
 ! A66   A(37,33,39)           107.4571         estimate D2E/DX2                !
 ! A67   A(38,33,39)           107.256          estimate D2E/DX2                !
 ! A68   A(30,34,36)           104.0053         estimate D2E/DX2                !
 ! A69   A(32,36,34)           118.3414         estimate D2E/DX2                !
 ! D1    D(25,1,2,3)           148.3968         estimate D2E/DX2                !
 ! D2    D(25,1,2,4)            30.8465         estimate D2E/DX2                !
 ! D3    D(25,1,2,6)           -94.2394         estimate D2E/DX2                !
 ! D4    D(30,1,2,3)           -36.1475         estimate D2E/DX2                !
 ! D5    D(30,1,2,4)          -153.6978         estimate D2E/DX2                !
 ! D6    D(30,1,2,6)            81.2163         estimate D2E/DX2                !
 ! D7    D(2,1,30,31)         -179.1405         estimate D2E/DX2                !
 ! D8    D(2,1,30,34)            1.0856         estimate D2E/DX2                !
 ! D9    D(25,1,30,31)          -3.8639         estimate D2E/DX2                !
 ! D10   D(25,1,30,34)         176.3622         estimate D2E/DX2                !
 ! D11   D(1,2,4,5)            168.1583         estimate D2E/DX2                !
 ! D12   D(1,2,4,24)           -14.165          estimate D2E/DX2                !
 ! D13   D(3,2,4,5)             50.33           estimate D2E/DX2                !
 ! D14   D(3,2,4,24)          -131.9933         estimate D2E/DX2                !
 ! D15   D(6,2,4,5)            -65.2183         estimate D2E/DX2                !
 ! D16   D(6,2,4,24)           112.4584         estimate D2E/DX2                !
 ! D17   D(1,2,6,7)           -177.9941         estimate D2E/DX2                !
 ! D18   D(1,2,6,8)            -63.735          estimate D2E/DX2                !
 ! D19   D(1,2,6,9)             58.0506         estimate D2E/DX2                !
 ! D20   D(3,2,6,7)            -60.1085         estimate D2E/DX2                !
 ! D21   D(3,2,6,8)             54.1506         estimate D2E/DX2                !
 ! D22   D(3,2,6,9)            175.9362         estimate D2E/DX2                !
 ! D23   D(4,2,6,7)             55.7043         estimate D2E/DX2                !
 ! D24   D(4,2,6,8)            169.9634         estimate D2E/DX2                !
 ! D25   D(4,2,6,9)            -68.251          estimate D2E/DX2                !
 ! D26   D(2,4,24,26)         -175.2559         estimate D2E/DX2                !
 ! D27   D(5,4,24,26)            2.4021         estimate D2E/DX2                !
 ! D28   D(2,6,9,10)           -93.415          estimate D2E/DX2                !
 ! D29   D(2,6,9,12)            85.7122         estimate D2E/DX2                !
 ! D30   D(7,6,9,10)           144.5507         estimate D2E/DX2                !
 ! D31   D(7,6,9,12)           -36.3221         estimate D2E/DX2                !
 ! D32   D(8,6,9,10)            25.8148         estimate D2E/DX2                !
 ! D33   D(8,6,9,12)          -155.058          estimate D2E/DX2                !
 ! D34   D(6,9,10,11)           -1.8966         estimate D2E/DX2                !
 ! D35   D(6,9,10,13)          178.8406         estimate D2E/DX2                !
 ! D36   D(12,9,10,11)         178.8189         estimate D2E/DX2                !
 ! D37   D(12,9,10,13)          -0.4439         estimate D2E/DX2                !
 ! D38   D(6,9,12,15)         -179.2265         estimate D2E/DX2                !
 ! D39   D(6,9,12,16)            1.8333         estimate D2E/DX2                !
 ! D40   D(10,9,12,15)           0.0359         estimate D2E/DX2                !
 ! D41   D(10,9,12,16)        -178.9043         estimate D2E/DX2                !
 ! D42   D(9,10,13,14)         176.1204         estimate D2E/DX2                !
 ! D43   D(9,10,13,15)           0.7026         estimate D2E/DX2                !
 ! D44   D(11,10,13,14)         -3.2171         estimate D2E/DX2                !
 ! D45   D(11,10,13,15)       -178.6349         estimate D2E/DX2                !
 ! D46   D(9,12,15,13)           0.3785         estimate D2E/DX2                !
 ! D47   D(9,12,15,18)        -179.4726         estimate D2E/DX2                !
 ! D48   D(16,12,15,13)        179.5131         estimate D2E/DX2                !
 ! D49   D(16,12,15,18)         -0.3379         estimate D2E/DX2                !
 ! D50   D(9,12,16,17)          -1.1117         estimate D2E/DX2                !
 ! D51   D(9,12,16,20)         179.1598         estimate D2E/DX2                !
 ! D52   D(15,12,16,17)       -179.9589         estimate D2E/DX2                !
 ! D53   D(15,12,16,20)          0.3126         estimate D2E/DX2                !
 ! D54   D(10,13,15,12)         -0.6562         estimate D2E/DX2                !
 ! D55   D(10,13,15,18)        179.1791         estimate D2E/DX2                !
 ! D56   D(14,13,15,12)       -176.0646         estimate D2E/DX2                !
 ! D57   D(14,13,15,18)          3.7707         estimate D2E/DX2                !
 ! D58   D(12,15,18,19)        179.9252         estimate D2E/DX2                !
 ! D59   D(12,15,18,22)          0.1236         estimate D2E/DX2                !
 ! D60   D(13,15,18,19)          0.1117         estimate D2E/DX2                !
 ! D61   D(13,15,18,22)       -179.6898         estimate D2E/DX2                !
 ! D62   D(12,16,20,21)       -179.717          estimate D2E/DX2                !
 ! D63   D(12,16,20,22)         -0.0908         estimate D2E/DX2                !
 ! D64   D(17,16,20,21)          0.5544         estimate D2E/DX2                !
 ! D65   D(17,16,20,22)       -179.8195         estimate D2E/DX2                !
 ! D66   D(15,18,22,20)          0.1108         estimate D2E/DX2                !
 ! D67   D(15,18,22,23)        179.8487         estimate D2E/DX2                !
 ! D68   D(19,18,22,20)       -179.691          estimate D2E/DX2                !
 ! D69   D(19,18,22,23)          0.0469         estimate D2E/DX2                !
 ! D70   D(16,20,22,18)         -0.1288         estimate D2E/DX2                !
 ! D71   D(16,20,22,23)       -179.8665         estimate D2E/DX2                !
 ! D72   D(21,20,22,18)        179.4983         estimate D2E/DX2                !
 ! D73   D(21,20,22,23)         -0.2393         estimate D2E/DX2                !
 ! D74   D(4,24,26,27)        -174.8917         estimate D2E/DX2                !
 ! D75   D(4,24,26,28)         -55.0473         estimate D2E/DX2                !
 ! D76   D(4,24,26,29)          65.9058         estimate D2E/DX2                !
 ! D77   D(1,30,31,32)         179.8603         estimate D2E/DX2                !
 ! D78   D(1,30,31,33)          -0.2099         estimate D2E/DX2                !
 ! D79   D(34,30,31,32)         -0.2809         estimate D2E/DX2                !
 ! D80   D(34,30,31,33)        179.6489         estimate D2E/DX2                !
 ! D81   D(1,30,34,36)        -179.9364         estimate D2E/DX2                !
 ! D82   D(31,30,34,36)          0.2718         estimate D2E/DX2                !
 ! D83   D(30,31,32,35)        179.8175         estimate D2E/DX2                !
 ! D84   D(30,31,32,36)          0.1069         estimate D2E/DX2                !
 ! D85   D(33,31,32,35)         -0.1103         estimate D2E/DX2                !
 ! D86   D(33,31,32,36)       -179.8209         estimate D2E/DX2                !
 ! D87   D(30,31,33,37)       -179.7323         estimate D2E/DX2                !
 ! D88   D(30,31,33,38)        -59.824          estimate D2E/DX2                !
 ! D89   D(30,31,33,39)         60.4416         estimate D2E/DX2                !
 ! D90   D(32,31,33,37)          0.1933         estimate D2E/DX2                !
 ! D91   D(32,31,33,38)        120.1016         estimate D2E/DX2                !
 ! D92   D(32,31,33,39)       -119.6328         estimate D2E/DX2                !
 ! D93   D(31,32,36,34)          0.0868         estimate D2E/DX2                !
 ! D94   D(35,32,36,34)       -179.5334         estimate D2E/DX2                !
 ! D95   D(30,34,36,32)         -0.2742         estimate D2E/DX2                !
 --------------------------------------------------------------------------------
 Trust Radius=3.00D-01 FncErr=1.00D-07 GrdErr=1.00D-06
 Number of steps in this run=    215 maximum allowed number of steps=    234.
 GradGradGradGradGradGradGradGradGradGradGradGradGradGradGradGradGradGrad

 Leave Link  103 at Thu Jan 25 18:11:54 2024, MaxMem=    33554432 cpu:         0.0
 (Enter C:\G09W\l202.exe)
                          Input orientation:                          
 ---------------------------------------------------------------------
 Center     Atomic      Atomic             Coordinates (Angstroms)
 Number     Number       Type             X           Y           Z
 ---------------------------------------------------------------------
      1          7           0        1.890419    0.435187    0.004676
      2          6           0        1.021634    1.125700   -0.928079
      3          1           0        1.658124    1.693337   -1.613311
      4          6           0        0.108418    2.125905   -0.234262
      5          8           0       -0.543943    2.953338   -0.833230
      6          6           0        0.175600    0.148387   -1.807869
      7          1           0       -0.416021    0.759422   -2.498837
      8          1           0        0.900472   -0.411036   -2.407216
      9          6           0       -0.702434   -0.795357   -1.039757
     10          6           0       -0.366464   -2.070650   -0.654727
     11          1           0        0.541619   -2.626743   -0.845728
     12          6           0       -2.040709   -0.563216   -0.541933
     13          7           0       -1.403204   -2.642950    0.057898
     14          1           0       -1.420137   -3.590942    0.399804
     15          6           0       -2.449031   -1.745942    0.136276
     16          6           0       -2.942003    0.515967   -0.616015
     17          1           0       -2.662924    1.432946   -1.126586
     18          6           0       -3.706570   -1.872183    0.735926
     19          1           0       -3.998846   -2.785464    1.248209
     20          6           0       -4.192503    0.393834   -0.021512
     21          1           0       -4.895433    1.220643   -0.078366
     22          6           0       -4.571173   -0.787531    0.649011
     23          1           0       -5.556724   -0.853293    1.101902
     24          8           0        0.065134    1.960778    1.104458
     25          1           0        1.540008    0.283709    0.937770
     26          6           0       -0.864094    2.808902    1.806125
     27          1           0       -0.699352    2.608295    2.864954
     28          1           0       -0.671346    3.858649    1.574432
     29          1           0       -1.887255    2.552194    1.520654
     30          6           0        3.096143   -0.073601   -0.391471
     31          6           0        3.890391   -0.785942    0.677635
     32          6           0        5.072782   -1.296112    0.316863
     33          6           0        3.344793   -0.897399    2.081333
     34          8           0        3.854413   -0.177027   -1.391782
     35          1           0        5.708130   -1.821041    1.024912
     36          1           0        5.068739   -0.959827   -0.859513
     37          1           0        4.043996   -1.435994    2.727285
     38          1           0        3.171939    0.089607    2.530585
     39          1           0        2.388992   -1.438825    2.106369
 ---------------------------------------------------------------------
                    Distance matrix (angstroms):
                    1          2          3          4          5
     1  N    0.000000
     2  C    1.449699   0.000000
     3  H    2.062713   1.094017   0.000000
     4  C    2.468025   1.521761   2.119075   0.000000
     5  O    3.601290   2.408379   2.654285   1.212016   0.000000
     6  C    2.511609   1.563632   2.150023   2.528108   3.055391
     7  H    3.419411   2.160623   2.440990   2.696407   2.757513
     8  H    2.741042   2.136372   2.373333   3.432950   3.985320
     9  C    3.054172   2.583668   3.477757   3.136889   3.757724
    10  C    3.436212   3.495453   4.380118   4.244217   5.030290
    11  H    3.452226   3.783917   4.527566   4.811363   5.684708
    12  C    4.092598   3.518450   4.463323   3.456122   3.832925
    13  N    4.508405   4.588541   5.564895   5.011221   5.731569
    14  H    5.227391   5.474690   6.438317   5.951543   6.716821
    15  C    4.858546   4.628682   5.635461   4.655002   5.162609
    16  C    4.872790   4.022384   4.852007   3.470260   3.426172
    17  H    4.796687   3.702671   4.356164   2.992786   2.624449
    18  C    6.097948   5.840559   6.856514   5.610713   5.979140
    19  H    6.826596   6.725969   7.762040   6.571825   7.014456
    20  C    6.083119   5.342726   6.200997   4.641471   4.530114
    21  H    6.831663   5.978521   6.747489   5.087468   4.744209
    22  C    6.607751   6.117774   7.076507   5.582728   5.692954
    23  H    7.637017   7.163242   8.118604   6.538715   6.585070
    24  O    2.620804   2.396550   3.161552   1.349560   2.260705
    25  H    1.008166   2.111647   2.917022   2.610899   3.821807
    26  C    4.057965   3.723575   4.393018   2.361238   2.662621
    27  H    4.428375   4.421197   5.142927   3.238878   3.717495
    28  H    4.554873   4.074034   4.502967   2.623320   2.575394
    29  H    4.588107   4.061135   4.809271   2.691498   2.739740
    30  C    1.367321   2.455577   2.585123   3.713360   4.754759
    31  C    2.438015   3.802954   4.047008   4.859396   5.994018
    32  C    3.636247   4.881276   4.931761   6.054655   7.136395
    33  C    2.864174   4.306571   4.817381   4.997646   6.200413
    34  O    2.486397   3.152261   2.893271   4.547067   5.427402
    35  H    4.550425   5.870324   5.976088   6.965678   8.083057
    36  H    3.576955   4.553371   4.386318   5.875157   6.842204
    37  H    3.943579   5.390606   5.858828   6.078376   7.279608
    38  H    2.853408   4.202339   4.694194   4.601744   5.772693
    39  H    2.859652   4.201706   4.917380   4.835997   6.044373
                    6          7          8          9         10
     6  C    0.000000
     7  H    1.095817   0.000000
     8  H    1.094354   1.763950   0.000000
     9  C    1.500531   2.151345   2.141718   0.000000
    10  C    2.558846   3.378240   2.725924   1.373862   0.000000
    11  H    2.959904   3.887925   2.734297   2.222451   1.081820
    12  C    2.649717   2.866785   3.486113   1.446616   2.255699
    13  N    3.710158   4.368931   4.045386   2.260426   1.382097
    14  H    4.626314   5.323160   4.834914   3.225326   2.129214
    15  C    3.775827   4.165789   4.412538   2.310252   2.251268
    16  C    3.357839   3.159885   4.339626   2.629600   3.650409
    17  H    3.189272   2.717587   4.211659   2.969241   4.215633
    18  C    5.062098   5.311944   5.765339   3.652046   3.623481
    19  H    5.947528   6.280383   6.557694   4.479023   4.162490
    20  C    4.725636   4.531292   5.681355   3.825125   4.594912
    21  H    5.464091   5.112390   6.455884   4.750765   5.628176
    22  C    5.426238   5.437582   6.278628   4.221272   4.585379
    23  H    6.506125   6.480200   7.362396   5.306052   5.613065
    24  O    3.431998   3.828642   4.319160   3.575346   4.419663
    25  H    3.068950   3.982790   3.475717   3.178607   3.422527
    26  C    4.606545   4.788928   5.588733   4.595200   5.487573
    27  H    5.352753   5.680569   6.282641   5.179925   5.864426
    28  H    5.091495   5.124638   6.046019   5.338045   6.341821
    29  H    4.594858   4.640568   5.655114   4.377854   5.330645
    30  C    3.253465   4.179739   2.999677   3.920509   4.005890
    31  C    4.566221   5.569857   4.312363   4.903424   4.641818
    32  C    5.530231   6.502334   5.060843   5.953511   5.579363
    33  C    5.124778   6.153595   5.134036   5.111914   4.757727
    34  O    3.716542   4.509890   3.132352   4.612061   4.684534
    35  H    6.520137   7.522022   6.072989   6.812504   6.307470
    36  H    5.105911   5.977106   4.480068   5.776329   5.551333
    37  H    6.167850   7.212763   6.106995   6.093408   5.594010
    38  H    5.272920   6.214273   5.458213   5.342403   5.228118
    39  H    4.768606   5.823084   4.862560   4.457474   3.951632
                   11         12         13         14         15
    11  H    0.000000
    12  C    3.319466   0.000000
    13  N    2.144560   2.256436   0.000000
    14  H    2.515853   3.230960   1.007906   0.000000
    15  C    3.268659   1.423213   1.380044   2.128872   0.000000
    16  C    4.697341   1.407997   3.577823   4.496072   2.434172
    17  H    5.179677   2.171090   4.427508   5.395724   3.427229
    18  C    4.595443   2.474149   2.521765   2.880084   1.398900
    19  H    5.002558   3.460823   2.859110   2.831665   2.172309
    20  C    5.675837   2.411846   4.124143   4.872572   2.764640
    21  H    6.704682   3.398014   5.209758   5.954635   3.851179
    22  C    5.635387   2.805693   3.718605   4.224955   2.384310
    23  H    6.642904   3.892133   4.641610   5.009892   3.374465
    24  O    5.007556   3.676374   4.944251   5.790005   4.582377
    25  H    3.556456   3.965897   4.242877   4.905587   4.546901
    26  C    6.209234   4.274223   5.750620   6.576087   5.103629
    27  H    6.535655   4.844027   5.995877   6.710219   5.428300
    28  H    7.027714   5.089896   6.716121   7.578710   6.053090
    29  H    6.190362   3.739464   5.418808   6.261998   4.550392
    30  C    3.640120   5.162326   5.200732   5.778805   5.815857
    31  C    4.113813   6.059282   5.643997   6.012231   6.434512
    32  C    4.863500   7.202529   6.619625   6.887026   7.537415
    33  C    4.406371   5.999736   5.448368   5.726017   6.170224
    34  O    4.156186   5.968571   5.985389   6.533412   6.673069
    35  H    5.553493   8.005100   7.223692   7.371262   8.205766
    36  H    4.824274   7.127581   6.749859   7.114363   7.624070
    37  H    5.143049   6.962267   6.185011   6.318047   6.997771
    38  H    5.069184   6.085905   5.874775   6.258900   6.379440
    39  H    3.679513   5.234735   4.475143   4.696109   5.232786
                   16         17         18         19         20
    16  C    0.000000
    17  H    1.086010   0.000000
    18  C    2.848784   3.934721   0.000000
    19  H    3.935949   5.021884   1.087171   0.000000
    20  C    1.390000   2.154195   2.438171   3.428940   0.000000
    21  H    2.145116   2.475466   3.412043   4.314228   1.086718
    22  C    2.439999   3.424132   1.389807   2.162945   1.410183
    23  H    3.415096   4.308959   2.143629   2.486297   2.162980
    24  O    3.753715   3.563490   5.390098   6.250073   4.674462
    25  H    4.749380   4.821509   5.675843   6.339960   5.813263
    26  C    3.929633   3.705380   5.580103   6.436992   4.500124
    27  H    4.639447   4.601027   5.800931   6.526344   5.043573
    28  H    4.596462   4.140763   6.538969   7.437938   5.191390
    29  H    3.134337   2.976955   4.847764   5.746620   3.514394
    30  C    6.071015   5.998077   7.126207   7.770561   7.312983
    31  C    7.074610   7.150148   7.674447   8.158658   8.198406
    32  C    8.269865   8.329013   8.808206   9.240130   9.424220
    33  C    6.985492   7.198188   7.244449   7.628101   7.930956
    34  O    6.875560   6.718483   8.035493   8.686033   8.182687
    35  H    9.109284   9.235362   9.419273   9.757323  10.199177
    36  H    8.149187   8.097858   8.965705   9.486651   9.397088
    37  H    7.986989   8.250207   8.014178   8.288308   8.873786
    38  H    6.889351   7.016059   7.374504   7.831391   7.800049
    39  H    6.296991   6.649881   6.262730   6.584402   7.155599
                   21         22         23         24         25
    21  H    0.000000
    22  C    2.160320   0.000000
    23  H    2.476196   1.086621   0.000000
    24  O    5.153067   5.408879   6.286835   0.000000
    25  H    6.582194   6.211076   7.189111   2.239553   0.000000
    26  C    4.724994   5.292984   5.994029   1.440526   3.593097
    27  H    5.309972   5.606517   6.219727   2.025602   3.759318
    28  H    5.247259   6.136126   6.803867   2.089304   4.251543
    29  H    3.657735   4.372292   5.023714   2.082022   4.151134
    30  C    8.101752   7.770459   8.815338   3.945062   2.077525
    31  C    9.043706   8.461613   9.456877   4.728556   2.595404
    32  C   10.288614   9.663066  10.667651   6.025295   3.919420
    33  C    8.777911   8.045255   8.955347   4.458657   2.441311
    34  O    8.957586   8.690687   9.759369   5.015980   3.315955
    35  H   11.086235  10.337965  11.306609   6.793518   4.670204
    36  H   10.229828   9.758752  10.805507   6.117449   4.150729
    37  H    9.738726   8.885993   9.754754   5.477497   3.525578
    38  H    8.553851   8.016575   8.894929   3.897096   2.288653
    39  H    8.056593   7.140866   8.030330   4.238094   2.248004
                   26         27         28         29         30
    26  C    0.000000
    27  H    1.090184   0.000000
    28  H    1.092155   1.797113   0.000000
    29  H    1.092818   1.794827   1.785540   0.000000
    30  C    5.368587   5.674738   5.789761   5.948553   0.000000
    31  C    6.066426   6.113178   6.571599   6.725699   1.510380
    32  C    7.369908   7.419885   7.819722   8.043674   2.429686
    33  C    5.614903   5.409165   6.245503   6.291930   2.618249
    34  O    6.434802   6.827488   6.750377   6.992687   1.259480
    35  H    8.077177   8.003786   8.559122   8.778429   3.447051
    36  H    7.517144   7.737831   7.879745   8.147720   2.212600
    37  H    6.554161   6.234948   7.183089   7.248541   3.532871
    38  H    4.920261   4.630603   5.467243   5.716620   2.927592
    39  H    5.358722   5.147087   6.140998   5.878570   2.933105
                   31         32         33         34         35
    31  C    0.000000
    32  C    1.337340   0.000000
    33  C    1.510122   2.501654   0.000000
    34  O    2.157442   2.378286   3.583458   0.000000
    35  H    2.120426   1.086532   2.748545   3.461136   0.000000
    36  H    1.944625   1.223505   3.409467   1.539700   2.168310
    37  H    2.155743   2.624519   1.093720   4.311340   2.411571
    38  H    2.171677   3.230168   1.098129   3.990216   3.514241
    39  H    2.172956   3.228843   1.098783   3.997080   3.511740
                   36         37         38         39
    36  H    0.000000
    37  H    3.760579   0.000000
    38  H    4.023920   1.768229   0.000000
    39  H    4.025785   1.767649   1.768918   0.000000
 Stoichiometry    C16H18N2O3
 Framework group  C1[X(C16H18N2O3)]
 Deg. of freedom   111
 Full point group                 C1      NOp   1
 Largest Abelian subgroup         C1      NOp   1
 Largest concise Abelian subgroup C1      NOp   1
                         Standard orientation:                         
 ---------------------------------------------------------------------
 Center     Atomic      Atomic             Coordinates (Angstroms)
 Number     Number       Type             X           Y           Z
 ---------------------------------------------------------------------
      1          7           0        1.870932    0.458824   -0.007508
      2          6           0        0.997469    1.132251   -0.948352
      3          1           0        1.630066    1.696307   -1.640115
      4          6           0        0.077113    2.134042   -0.266359
      5          8           0       -0.580954    2.949802   -0.875020
      6          6           0        0.158491    0.138786   -1.816734
      7          1           0       -0.437297    0.737520   -2.514852
      8          1           0        0.887388   -0.422486   -2.409433
      9          6           0       -0.713010   -0.802074   -1.037722
     10          6           0       -0.368137   -2.070382   -0.637778
     11          1           0        0.543873   -2.622260   -0.822182
     12          6           0       -2.052973   -0.573560   -0.542769
     13          7           0       -1.400945   -2.641599    0.081394
     14          1           0       -1.411263   -3.585625    0.434357
     15          6           0       -2.453076   -1.751124    0.149183
     16          6           0       -2.961831    0.498309   -0.629545
     17          1           0       -2.689126    1.411199   -1.150776
     18          6           0       -3.709799   -1.879199    0.750153
     19          1           0       -3.995727   -2.788465    1.273051
     20          6           0       -4.211543    0.374330   -0.033769
     21          1           0       -4.920267    1.195447   -0.100350
     22          6           0       -4.582003   -0.801753    0.650484
     23          1           0       -5.567145   -0.869156    1.104022
     24          8           0        0.034759    1.984275    1.074196
     25          1           0        1.521434    0.315800    0.927261
     26          6           0       -0.900539    2.833978    1.765814
     27          1           0       -0.734573    2.646928    2.826931
     28          1           0       -0.715147    3.882277    1.521882
     29          1           0       -1.921818    2.566752    1.483270
     30          6           0        3.080278   -0.046056   -0.397569
     31          6           0        3.879335   -0.740239    0.679864
     32          6           0        5.065352   -1.246252    0.325190
     33          6           0        3.334291   -0.839119    2.084719
     34          8           0        3.839431   -0.155825   -1.396533
     35          1           0        5.704257   -1.758381    1.039386
     36          1           0        5.059147   -0.923779   -0.855038
     37          1           0        4.037157   -1.365189    2.736988
     38          1           0        3.154414    0.151829    2.522386
     39          1           0        2.382322   -1.386933    2.115996
 ---------------------------------------------------------------------
 Rotational constants (GHZ):      0.4890020      0.2081799      0.1770373
 Leave Link  202 at Thu Jan 25 18:11:54 2024, MaxMem=    33554432 cpu:         0.0
 (Enter C:\G09W\l301.exe)
 Standard basis: 6-31G(d) (6D, 7F)
 Ernie: Thresh=  0.10000D-02 Tol=  0.10000D-05 Strict=F.
 There are   351 symmetry adapted cartesian basis functions of A   symmetry.
 There are   351 symmetry adapted basis functions of A   symmetry.
   351 basis functions,   660 primitive gaussians,   351 cartesian basis functions
    76 alpha electrons       76 beta electrons
       nuclear repulsion energy      1678.9266502304 Hartrees.
 IExCor=  402 DFT=T Ex+Corr=B3LYP ExCW=0 ScaHFX=  0.200000
 ScaDFX=  0.800000  0.720000  1.000000  0.810000 ScalE2=  1.000000  1.000000
 IRadAn=      0 IRanWt=     -1 IRanGd=            0 ICorTp=0 IEmpDi=  4
 NAtoms=   39 NActive=   39 NUniq=   39 SFac= 1.00D+00 NAtFMM=   60 NAOKFM=F Big=F
 Integral buffers will be    262144 words long.
 Raffenetti 2 integral format.
 Two-electron integral symmetry is turned on.
 Leave Link  301 at Thu Jan 25 18:11:54 2024, MaxMem=    33554432 cpu:         0.0
 (Enter C:\G09W\l302.exe)
 NPDir=0 NMtPBC=     1 NCelOv=     1 NCel=       1 NClECP=     1 NCelD=      1
         NCelK=      1 NCelE2=     1 NClLst=     1 CellRange=     0.0.
 One-electron integrals computed using PRISM.
 NBasis=   351 RedAO= T EigKep=  3.70D-04  NBF=   351
 NBsUse=   351 1.00D-06 EigRej= -1.00D+00 NBFU=   351
 Precomputing XC quadrature grid using
 IXCGrd= 4 IRadAn=           0 IRanWt=          -1 IRanGd=           0 AccXCQ= 0.00D+00.
 Generated NRdTot=       0 NPtTot=           0 NUsed=           0 NTot=          16
 NSgBfM=   347   347   347   347   347 MxSgAt=    39 MxSgA2=    39.
 Leave Link  302 at Thu Jan 25 18:11:56 2024, MaxMem=    33554432 cpu:         2.0
 (Enter C:\G09W\l303.exe)
 DipDrv:  MaxL=1.
 Leave Link  303 at Thu Jan 25 18:11:56 2024, MaxMem=    33554432 cpu:         0.0
 (Enter C:\G09W\l401.exe)
 ExpMin= 1.61D-01 ExpMax= 5.48D+03 ExpMxC= 8.25D+02 IAcc=1 IRadAn=         1 AccDes= 0.00D+00
 Harris functional with IExCor=  402 and IRadAn=       1 diagonalized for initial guess.
 HarFok:  IExCor=  402 AccDes= 0.00D+00 IRadAn=         1 IDoV= 1 UseB2=F ITyADJ=14
 ICtDFT=  3500011 ScaDFX=  1.000000  1.000000  1.000000  1.000000
 FoFCou: FMM=F IPFlag=           0 FMFlag=      100000 FMFlg1=           0
         NFxFlg=           0 DoJE=T BraDBF=F KetDBF=T FulRan=T
         wScrn=  0.000000 ICntrl=     500 IOpCl=  0 I1Cent=   200000004 NGrid=           0
         NMat0=    1 NMatS0=      1 NMatT0=    0 NMatD0=    1 NMtDS0=    0 NMtDT0=    0
 Petite list used in FoFCou.
 Harris En= -955.687867132734    
 JPrj=0 DoOrth=F DoCkMO=F.
 Leave Link  401 at Thu Jan 25 18:11:57 2024, MaxMem=    33554432 cpu:         1.0
 (Enter C:\G09W\l502.exe)
 Closed shell SCF:
 Using DIIS extrapolation, IDIIS=  1040.
 Integral symmetry usage will be decided dynamically.
 IVT=      393055 IEndB=      393055 NGot=    33554432 MDV=    33301570
 LenX=    33301570 LenY=    33177928
 Requested convergence on RMS density matrix=1.00D-08 within 128 cycles.
 Requested convergence on MAX density matrix=1.00D-06.
 Requested convergence on             energy=1.00D-06.
 No special actions if energy rises.
 Fock matrices will be formed incrementally for  20 cycles.
 Integral accuracy reduced to 1.0D-05 until final iterations.

 Cycle   1  Pass 0  IDiag  1:
 FoFJK:  IHMeth= 1 ICntrl=       0 DoSepK=F KAlg= 0 I1Cent=   0 FoldK=F
 IRaf= 760000000 NMat=   1 IRICut=       1 DoRegI=T DoRafI=F ISym2E= 0.
 FoFCou: FMM=F IPFlag=           0 FMFlag=      100000 FMFlg1=           0
         NFxFlg=           0 DoJE=F BraDBF=F KetDBF=F FulRan=T
         wScrn=  0.000000 ICntrl=       0 IOpCl=  0 I1Cent=           0 NGrid=           0
         NMat0=    1 NMatS0=      1 NMatT0=    0 NMatD0=    1 NMtDS0=    0 NMtDT0=    0
 Symmetry not used in FoFCou.
 E= -955.113717168275    
 DIIS: error= 2.22D-02 at cycle   1 NSaved=   1.
 NSaved= 1 IEnMin= 1 EnMin= -955.113717168275     IErMin= 1 ErrMin= 2.22D-02
 ErrMax= 2.22D-02  0.00D+00 EMaxC= 1.00D-01 BMatC= 5.61D-01 BMatP= 5.61D-01
 IDIUse=3 WtCom= 7.78D-01 WtEn= 2.22D-01
 Coeff-Com:  0.100D+01
 Coeff-En:   0.100D+01
 Coeff:      0.100D+01
 Gap=     0.194 Goal=   None    Shift=    0.000
 GapD=    0.194 DampG=1.000 DampE=0.500 DampFc=0.5000 IDamp=-1.
 Damping current iteration by 5.00D-01
 RMSDP=5.61D-03 MaxDP=2.08D-01              OVMax= 2.93D-01

 Cycle   2  Pass 0  IDiag  1:
 RMSU=  2.78D-03    CP:  9.81D-01
 E= -955.266792052003     Delta-E=       -0.153074883729 Rises=F Damp=T
 DIIS: error= 9.79D-03 at cycle   2 NSaved=   2.
 NSaved= 2 IEnMin= 2 EnMin= -955.266792052003     IErMin= 2 ErrMin= 9.79D-03
 ErrMax= 9.79D-03  0.00D+00 EMaxC= 1.00D-01 BMatC= 1.01D-01 BMatP= 5.61D-01
 IDIUse=3 WtCom= 9.02D-01 WtEn= 9.79D-02
 Coeff-Com:  0.218D+00 0.782D+00
 Coeff-En:   0.329D+00 0.671D+00
 Coeff:      0.229D+00 0.771D+00
 Gap=     0.222 Goal=   None    Shift=    0.000
 RMSDP=1.99D-03 MaxDP=1.13D-01 DE=-1.53D-01 OVMax= 1.95D-01

 Cycle   3  Pass 0  IDiag  1:
 RMSU=  1.75D-03    CP:  9.64D-01  6.76D-01
 E= -955.548150430542     Delta-E=       -0.281358378538 Rises=F Damp=F
 DIIS: error= 1.34D-02 at cycle   3 NSaved=   3.
 NSaved= 3 IEnMin= 3 EnMin= -955.548150430542     IErMin= 2 ErrMin= 9.79D-03
 ErrMax= 1.34D-02  0.00D+00 EMaxC= 1.00D-01 BMatC= 1.26D-01 BMatP= 1.01D-01
 IDIUse=2 WtCom= 0.00D+00 WtEn= 1.00D+00
 Coeff-En:   0.000D+00 0.000D+00 0.100D+01
 Coeff:      0.000D+00 0.000D+00 0.100D+01
 Gap=     0.191 Goal=   None    Shift=    0.000
 RMSDP=3.40D-03 MaxDP=1.82D-01 DE=-2.81D-01 OVMax= 2.75D-01

 Cycle   4  Pass 0  IDiag  1:
 RMSU=  1.87D-03    CP:  9.73D-01  1.22D+00 -3.65D-01
 E= -954.950894837573     Delta-E=        0.597255592969 Rises=F Damp=F
 DIIS: error= 3.78D-02 at cycle   4 NSaved=   4.
 NSaved= 4 IEnMin= 3 EnMin= -955.548150430542     IErMin= 2 ErrMin= 9.79D-03
 ErrMax= 3.78D-02  0.00D+00 EMaxC= 1.00D-01 BMatC= 8.69D-01 BMatP= 1.01D-01
 IDIUse=2 WtCom= 0.00D+00 WtEn= 1.00D+00
 Coeff-En:   0.000D+00 0.000D+00 0.811D+00 0.189D+00
 Coeff:      0.000D+00 0.000D+00 0.811D+00 0.189D+00
 Gap=     0.195 Goal=   None    Shift=    0.000
 RMSDP=1.92D-03 MaxDP=1.19D-01 DE= 5.97D-01 OVMax= 1.36D-01

 Cycle   5  Pass 0  IDiag  1:
 RMSU=  3.53D-04    CP:  9.70D-01  8.37D-01  3.38D-01  4.98D-01
 E= -955.602448579509     Delta-E=       -0.651553741936 Rises=F Damp=F
 DIIS: error= 9.61D-03 at cycle   5 NSaved=   5.
 NSaved= 5 IEnMin= 5 EnMin= -955.602448579509     IErMin= 5 ErrMin= 9.61D-03
 ErrMax= 9.61D-03  0.00D+00 EMaxC= 1.00D-01 BMatC= 6.51D-02 BMatP= 1.01D-01
 IDIUse=3 WtCom= 9.04D-01 WtEn= 9.61D-02
 Coeff-Com: -0.269D-03 0.423D-01 0.359D+00-0.561D-01 0.655D+00
 Coeff-En:   0.000D+00 0.000D+00 0.374D+00 0.000D+00 0.626D+00
 Coeff:     -0.243D-03 0.382D-01 0.360D+00-0.507D-01 0.652D+00
 Gap=     0.198 Goal=   None    Shift=    0.000
 RMSDP=6.88D-04 MaxDP=3.04D-02 DE=-6.52D-01 OVMax= 5.31D-02

 Cycle   6  Pass 0  IDiag  1:
 RMSU=  1.38D-04    CP:  9.68D-01  7.50D-01  6.12D-01  2.94D-01  6.10D-01
 E= -955.656138816393     Delta-E=       -0.053690236884 Rises=F Damp=F
 DIIS: error= 1.28D-03 at cycle   6 NSaved=   6.
 NSaved= 6 IEnMin= 6 EnMin= -955.656138816393     IErMin= 6 ErrMin= 1.28D-03
 ErrMax= 1.28D-03  0.00D+00 EMaxC= 1.00D-01 BMatC= 1.06D-03 BMatP= 6.51D-02
 IDIUse=3 WtCom= 9.87D-01 WtEn= 1.28D-02
 Coeff-Com: -0.693D-02 0.272D-01 0.177D+00-0.632D-01 0.445D+00 0.421D+00
 Coeff-En:   0.000D+00 0.000D+00 0.000D+00 0.000D+00 0.000D+00 0.100D+01
 Coeff:     -0.684D-02 0.268D-01 0.175D+00-0.624D-01 0.440D+00 0.428D+00
 Gap=     0.186 Goal=   None    Shift=    0.000
 RMSDP=9.61D-05 MaxDP=3.78D-03 DE=-5.37D-02 OVMax= 1.08D-02

 Cycle   7  Pass 0  IDiag  1:
 RMSU=  3.53D-05    CP:  9.68D-01  7.58D-01  6.08D-01  2.91D-01  7.36D-01
                    CP:  4.64D-01
 E= -955.657061488262     Delta-E=       -0.000922671869 Rises=F Damp=F
 DIIS: error= 2.99D-04 at cycle   7 NSaved=   7.
 NSaved= 7 IEnMin= 7 EnMin= -955.657061488262     IErMin= 7 ErrMin= 2.99D-04
 ErrMax= 2.99D-04  0.00D+00 EMaxC= 1.00D-01 BMatC= 3.91D-05 BMatP= 1.06D-03
 IDIUse=3 WtCom= 9.97D-01 WtEn= 2.99D-03
 Coeff-Com: -0.241D-02 0.747D-02 0.621D-01-0.242D-01 0.159D+00 0.205D+00
 Coeff-Com:  0.593D+00
 Coeff-En:   0.000D+00 0.000D+00 0.000D+00 0.000D+00 0.000D+00 0.000D+00
 Coeff-En:   0.100D+01
 Coeff:     -0.240D-02 0.745D-02 0.619D-01-0.241D-01 0.158D+00 0.204D+00
 Coeff:      0.595D+00
 Gap=     0.186 Goal=   None    Shift=    0.000
 RMSDP=1.89D-05 MaxDP=1.14D-03 DE=-9.23D-04 OVMax= 2.23D-03

 Cycle   8  Pass 0  IDiag  1:
 RMSU=  1.39D-05    CP:  9.68D-01  7.58D-01  6.09D-01  2.91D-01  7.27D-01
                    CP:  5.06D-01  7.07D-01
 E= -955.657084648813     Delta-E=       -0.000023160551 Rises=F Damp=F
 DIIS: error= 1.04D-04 at cycle   8 NSaved=   8.
 NSaved= 8 IEnMin= 8 EnMin= -955.657084648813     IErMin= 8 ErrMin= 1.04D-04
 ErrMax= 1.04D-04  0.00D+00 EMaxC= 1.00D-01 BMatC= 9.96D-06 BMatP= 3.91D-05
 IDIUse=3 WtCom= 9.99D-01 WtEn= 1.04D-03
 Coeff-Com: -0.147D-03-0.524D-03 0.125D-01-0.473D-02 0.284D-01 0.636D-01
 Coeff-Com:  0.399D+00 0.502D+00
 Coeff-En:   0.000D+00 0.000D+00 0.000D+00 0.000D+00 0.000D+00 0.000D+00
 Coeff-En:   0.161D+00 0.839D+00
 Coeff:     -0.147D-03-0.523D-03 0.125D-01-0.473D-02 0.283D-01 0.635D-01
 Coeff:      0.399D+00 0.502D+00
 Gap=     0.186 Goal=   None    Shift=    0.000
 RMSDP=9.17D-06 MaxDP=4.85D-04 DE=-2.32D-05 OVMax= 7.90D-04

 Initial convergence to 1.0D-05 achieved.  Increase integral accuracy.
 Cycle   9  Pass 1  IDiag  1:
 E= -955.657125376582     Delta-E=       -0.000040727768 Rises=F Damp=F
 DIIS: error= 4.80D-05 at cycle   1 NSaved=   1.
 NSaved= 1 IEnMin= 1 EnMin= -955.657125376582     IErMin= 1 ErrMin= 4.80D-05
 ErrMax= 4.80D-05  0.00D+00 EMaxC= 1.00D-01 BMatC= 1.13D-06 BMatP= 1.13D-06
 IDIUse=1 WtCom= 1.00D+00 WtEn= 0.00D+00
 Coeff-Com:  0.100D+01
 Coeff:      0.100D+01
 Gap=     0.186 Goal=   None    Shift=    0.000
 RMSDP=9.17D-06 MaxDP=4.85D-04 DE=-4.07D-05 OVMax= 3.92D-04

 Cycle  10  Pass 1  IDiag  1:
 RMSU=  3.71D-05    CP:  1.00D+00
 E= -955.657125515153     Delta-E=       -0.000000138572 Rises=F Damp=F
 DIIS: error= 3.92D-05 at cycle   2 NSaved=   2.
 NSaved= 2 IEnMin= 2 EnMin= -955.657125515153     IErMin= 2 ErrMin= 3.92D-05
 ErrMax= 3.92D-05  0.00D+00 EMaxC= 1.00D-01 BMatC= 1.23D-06 BMatP= 1.13D-06
 IDIUse=1 WtCom= 1.00D+00 WtEn= 0.00D+00
 Coeff-Com:  0.513D+00 0.487D+00
 Coeff:      0.513D+00 0.487D+00
 Gap=     0.186 Goal=   None    Shift=    0.000
 RMSDP=4.17D-06 MaxDP=2.83D-04 DE=-1.39D-07 OVMax= 4.21D-04

 Cycle  11  Pass 1  IDiag  1:
 RMSU=  4.16D-06    CP:  1.00D+00  9.92D-01
 E= -955.657126209296     Delta-E=       -0.000000694143 Rises=F Damp=F
 DIIS: error= 2.32D-05 at cycle   3 NSaved=   3.
 NSaved= 3 IEnMin= 3 EnMin= -955.657126209296     IErMin= 3 ErrMin= 2.32D-05
 ErrMax= 2.32D-05  0.00D+00 EMaxC= 1.00D-01 BMatC= 3.83D-07 BMatP= 1.13D-06
 IDIUse=1 WtCom= 1.00D+00 WtEn= 0.00D+00
 Coeff-Com:  0.200D-01 0.355D+00 0.625D+00
 Coeff:      0.200D-01 0.355D+00 0.625D+00
 Gap=     0.186 Goal=   None    Shift=    0.000
 RMSDP=1.64D-06 MaxDP=1.07D-04 DE=-6.94D-07 OVMax= 1.90D-04

 Cycle  12  Pass 1  IDiag  1:
 RMSU=  7.10D-07    CP:  1.00D+00  1.00D+00  6.57D-01
 E= -955.657126497163     Delta-E=       -0.000000287867 Rises=F Damp=F
 DIIS: error= 6.32D-06 at cycle   4 NSaved=   4.
 NSaved= 4 IEnMin= 4 EnMin= -955.657126497163     IErMin= 4 ErrMin= 6.32D-06
 ErrMax= 6.32D-06  0.00D+00 EMaxC= 1.00D-01 BMatC= 2.38D-08 BMatP= 3.83D-07
 IDIUse=1 WtCom= 1.00D+00 WtEn= 0.00D+00
 Coeff-Com: -0.676D-02 0.201D+00 0.387D+00 0.419D+00
 Coeff:     -0.676D-02 0.201D+00 0.387D+00 0.419D+00
 Gap=     0.186 Goal=   None    Shift=    0.000
 RMSDP=4.23D-07 MaxDP=2.35D-05 DE=-2.88D-07 OVMax= 3.29D-05

 Cycle  13  Pass 1  IDiag  1:
 RMSU=  2.08D-07    CP:  1.00D+00  1.00D+00  6.62D-01  4.84D-01
 E= -955.657126516070     Delta-E=       -0.000000018907 Rises=F Damp=F
 DIIS: error= 9.97D-07 at cycle   5 NSaved=   5.
 NSaved= 5 IEnMin= 5 EnMin= -955.657126516070     IErMin= 5 ErrMin= 9.97D-07
 ErrMax= 9.97D-07  0.00D+00 EMaxC= 1.00D-01 BMatC= 1.02D-09 BMatP= 2.38D-08
 IDIUse=1 WtCom= 1.00D+00 WtEn= 0.00D+00
 Coeff-Com: -0.507D-02 0.104D+00 0.204D+00 0.252D+00 0.445D+00
 Coeff:     -0.507D-02 0.104D+00 0.204D+00 0.252D+00 0.445D+00
 Gap=     0.186 Goal=   None    Shift=    0.000
 RMSDP=1.10D-07 MaxDP=5.86D-06 DE=-1.89D-08 OVMax= 8.17D-06

 Cycle  14  Pass 1  IDiag  1:
 RMSU=  8.63D-08    CP:  1.00D+00  1.00D+00  6.63D-01  5.18D-01  6.93D-01
 E= -955.657126516872     Delta-E=       -0.000000000802 Rises=F Damp=F
 DIIS: error= 3.63D-07 at cycle   6 NSaved=   6.
 NSaved= 6 IEnMin= 6 EnMin= -955.657126516872     IErMin= 6 ErrMin= 3.63D-07
 ErrMax= 3.63D-07  0.00D+00 EMaxC= 1.00D-01 BMatC= 9.57D-11 BMatP= 1.02D-09
 IDIUse=1 WtCom= 1.00D+00 WtEn= 0.00D+00
 Coeff-Com: -0.195D-02 0.323D-01 0.650D-01 0.885D-01 0.263D+00 0.553D+00
 Coeff:     -0.195D-02 0.323D-01 0.650D-01 0.885D-01 0.263D+00 0.553D+00
 Gap=     0.186 Goal=   None    Shift=    0.000
 RMSDP=3.73D-08 MaxDP=2.00D-06 DE=-8.02D-10 OVMax= 2.95D-06

 Cycle  15  Pass 1  IDiag  1:
 RMSU=  2.81D-08    CP:  1.00D+00  1.00D+00  6.62D-01  5.13D-01  7.47D-01
                    CP:  7.51D-01
 E= -955.657126516994     Delta-E=       -0.000000000122 Rises=F Damp=F
 DIIS: error= 1.63D-07 at cycle   7 NSaved=   7.
 NSaved= 7 IEnMin= 7 EnMin= -955.657126516994     IErMin= 7 ErrMin= 1.63D-07
 ErrMax= 1.63D-07  0.00D+00 EMaxC= 1.00D-01 BMatC= 1.78D-11 BMatP= 9.57D-11
 IDIUse=1 WtCom= 1.00D+00 WtEn= 0.00D+00
 Coeff-Com: -0.452D-03 0.454D-02 0.101D-01 0.173D-01 0.926D-01 0.352D+00
 Coeff-Com:  0.524D+00
 Coeff:     -0.452D-03 0.454D-02 0.101D-01 0.173D-01 0.926D-01 0.352D+00
 Coeff:      0.524D+00
 Gap=     0.186 Goal=   None    Shift=    0.000
 RMSDP=1.31D-08 MaxDP=7.83D-07 DE=-1.22D-10 OVMax= 8.21D-07

 Cycle  16  Pass 1  IDiag  1:
 RMSU=  8.13D-09    CP:  1.00D+00  1.00D+00  6.63D-01  5.15D-01  7.55D-01
                    CP:  7.96D-01  6.73D-01
 E= -955.657126517026     Delta-E=       -0.000000000032 Rises=F Damp=F
 DIIS: error= 3.44D-08 at cycle   8 NSaved=   8.
 NSaved= 8 IEnMin= 8 EnMin= -955.657126517026     IErMin= 8 ErrMin= 3.44D-08
 ErrMax= 3.44D-08  0.00D+00 EMaxC= 1.00D-01 BMatC= 1.50D-12 BMatP= 1.78D-11
 IDIUse=1 WtCom= 1.00D+00 WtEn= 0.00D+00
 Coeff-Com:  0.915D-05-0.194D-02-0.330D-02-0.219D-02 0.161D-01 0.131D+00
 Coeff-Com:  0.289D+00 0.572D+00
 Coeff:      0.915D-05-0.194D-02-0.330D-02-0.219D-02 0.161D-01 0.131D+00
 Coeff:      0.289D+00 0.572D+00
 Gap=     0.186 Goal=   None    Shift=    0.000
 RMSDP=4.35D-09 MaxDP=1.66D-07 DE=-3.18D-11 OVMax= 4.76D-07

 SCF Done:  E(RB3LYP) =  -955.657126517     A.U. after   16 cycles
            NFock= 16  Conv=0.43D-08     -V/T= 2.0094
 KE= 9.467409477653D+02 PE=-5.581357809260D+03 EE= 2.000033084747D+03
 Leave Link  502 at Thu Jan 25 18:13:24 2024, MaxMem=    33554432 cpu:        87.0
 (Enter C:\G09W\l601.exe)
 Copying SCF densities to generalized density rwf, IOpCl= 0 IROHF=0.

 **********************************************************************

            Population analysis using the SCF density.

 **********************************************************************

 Orbital symmetries:
       Occupied  (A) (A) (A) (A) (A) (A) (A) (A) (A) (A) (A) (A)
                 (A) (A) (A) (A) (A) (A) (A) (A) (A) (A) (A) (A)
                 (A) (A) (A) (A) (A) (A) (A) (A) (A) (A) (A) (A)
                 (A) (A) (A) (A) (A) (A) (A) (A) (A) (A) (A) (A)
                 (A) (A) (A) (A) (A) (A) (A) (A) (A) (A) (A) (A)
                 (A) (A) (A) (A) (A) (A) (A) (A) (A) (A) (A) (A)
                 (A) (A) (A) (A)
       Virtual   (A) (A) (A) (A) (A) (A) (A) (A) (A) (A) (A) (A)
                 (A) (A) (A) (A) (A) (A) (A) (A) (A) (A) (A) (A)
                 (A) (A) (A) (A) (A) (A) (A) (A) (A) (A) (A) (A)
                 (A) (A) (A) (A) (A) (A) (A) (A) (A) (A) (A) (A)
                 (A) (A) (A) (A) (A) (A) (A) (A) (A) (A) (A) (A)
                 (A) (A) (A) (A) (A) (A) (A) (A) (A) (A) (A) (A)
                 (A) (A) (A) (A) (A) (A) (A) (A) (A) (A) (A) (A)
                 (A) (A) (A) (A) (A) (A) (A) (A) (A) (A) (A) (A)
                 (A) (A) (A) (A) (A) (A) (A) (A) (A) (A) (A) (A)
                 (A) (A) (A) (A) (A) (A) (A) (A) (A) (A) (A) (A)
                 (A) (A) (A) (A) (A) (A) (A) (A) (A) (A) (A) (A)
                 (A) (A) (A) (A) (A) (A) (A) (A) (A) (A) (A) (A)
                 (A) (A) (A) (A) (A) (A) (A) (A) (A) (A) (A) (A)
                 (A) (A) (A) (A) (A) (A) (A) (A) (A) (A) (A) (A)
                 (A) (A) (A) (A) (A) (A) (A) (A) (A) (A) (A) (A)
                 (A) (A) (A) (A) (A) (A) (A) (A) (A) (A) (A) (A)
                 (A) (A) (A) (A) (A) (A) (A) (A) (A) (A) (A) (A)
                 (A) (A) (A) (A) (A) (A) (A) (A) (A) (A) (A) (A)
                 (A) (A) (A) (A) (A) (A) (A) (A) (A) (A) (A) (A)
                 (A) (A) (A) (A) (A) (A) (A) (A) (A) (A) (A) (A)
                 (A) (A) (A) (A) (A) (A) (A) (A) (A) (A) (A) (A)
                 (A) (A) (A) (A) (A) (A) (A) (A) (A) (A) (A) (A)
                 (A) (A) (A) (A) (A) (A) (A) (A) (A) (A) (A)
 The electronic state is 1-A.
 Alpha  occ. eigenvalues --  -19.21274 -19.14955 -19.11783 -14.38558 -14.38557
 Alpha  occ. eigenvalues --  -10.33053 -10.29648 -10.25250 -10.25119 -10.22442
 Alpha  occ. eigenvalues --  -10.22278 -10.20414 -10.19274 -10.18804 -10.18766
 Alpha  occ. eigenvalues --  -10.18750 -10.18587 -10.18258 -10.17968 -10.17489
 Alpha  occ. eigenvalues --  -10.15843  -1.11891  -1.02956  -1.02880  -0.98345
 Alpha  occ. eigenvalues --   -0.95151  -0.84032  -0.81476  -0.78635  -0.76739
 Alpha  occ. eigenvalues --   -0.74136  -0.73647  -0.71885  -0.67620  -0.67326
 Alpha  occ. eigenvalues --   -0.62632  -0.62058  -0.59897  -0.59119  -0.56857
 Alpha  occ. eigenvalues --   -0.55662  -0.54073  -0.51961  -0.50151  -0.48915
 Alpha  occ. eigenvalues --   -0.48567  -0.47496  -0.46766  -0.45890  -0.45202
 Alpha  occ. eigenvalues --   -0.44968  -0.44609  -0.43145  -0.42589  -0.42454
 Alpha  occ. eigenvalues --   -0.41767  -0.41117  -0.40835  -0.39776  -0.38756
 Alpha  occ. eigenvalues --   -0.38116  -0.37610  -0.36985  -0.36731  -0.35334
 Alpha  occ. eigenvalues --   -0.33639  -0.33554  -0.31690  -0.30223  -0.29380
 Alpha  occ. eigenvalues --   -0.27940  -0.26734  -0.23437  -0.23380  -0.22553
 Alpha  occ. eigenvalues --   -0.20685
 Alpha virt. eigenvalues --   -0.02099  -0.01368  -0.00604   0.02406   0.05306
 Alpha virt. eigenvalues --    0.06937   0.07387   0.09101   0.09962   0.10967
 Alpha virt. eigenvalues --    0.11271   0.11853   0.13549   0.14146   0.14425
 Alpha virt. eigenvalues --    0.14649   0.14921   0.15729   0.16333   0.16504
 Alpha virt. eigenvalues --    0.17511   0.17692   0.17801   0.18290   0.19338
 Alpha virt. eigenvalues --    0.19792   0.20606   0.21595   0.23344   0.23853
 Alpha virt. eigenvalues --    0.25821   0.26584   0.26963   0.27410   0.28302
 Alpha virt. eigenvalues --    0.30592   0.31842   0.33532   0.34835   0.35552
 Alpha virt. eigenvalues --    0.36699   0.39191   0.40468   0.43169   0.44037
 Alpha virt. eigenvalues --    0.46681   0.48705   0.48990   0.50371   0.51343
 Alpha virt. eigenvalues --    0.52165   0.53013   0.53351   0.53836   0.54236
 Alpha virt. eigenvalues --    0.54886   0.56037   0.56199   0.56980   0.57664
 Alpha virt. eigenvalues --    0.58655   0.59165   0.59491   0.60284   0.60565
 Alpha virt. eigenvalues --    0.61101   0.61839   0.62271   0.62499   0.63839
 Alpha virt. eigenvalues --    0.64212   0.65082   0.65837   0.66778   0.68651
 Alpha virt. eigenvalues --    0.68810   0.69706   0.70134   0.72126   0.73666
 Alpha virt. eigenvalues --    0.75404   0.75774   0.76578   0.77667   0.78722
 Alpha virt. eigenvalues --    0.79076   0.79548   0.81460   0.81816   0.82112
 Alpha virt. eigenvalues --    0.82421   0.83997   0.84649   0.84921   0.86065
 Alpha virt. eigenvalues --    0.86473   0.86607   0.87406   0.88470   0.89045
 Alpha virt. eigenvalues --    0.89718   0.90538   0.91477   0.92810   0.92983
 Alpha virt. eigenvalues --    0.93401   0.94576   0.94706   0.96025   0.96702
 Alpha virt. eigenvalues --    0.97899   0.98330   0.98864   0.99484   1.00163
 Alpha virt. eigenvalues --    1.03163   1.03731   1.04894   1.06574   1.07535
 Alpha virt. eigenvalues --    1.08612   1.10886   1.11474   1.12707   1.14555
 Alpha virt. eigenvalues --    1.14955   1.16219   1.18575   1.19247   1.20776
 Alpha virt. eigenvalues --    1.23727   1.24810   1.26230   1.29736   1.31921
 Alpha virt. eigenvalues --    1.33299   1.33573   1.34286   1.36506   1.36991
 Alpha virt. eigenvalues --    1.38268   1.39352   1.40880   1.41538   1.42179
 Alpha virt. eigenvalues --    1.42618   1.44396   1.45801   1.46764   1.48892
 Alpha virt. eigenvalues --    1.49979   1.50236   1.50700   1.51240   1.52287
 Alpha virt. eigenvalues --    1.54834   1.59251   1.60825   1.63904   1.67265
 Alpha virt. eigenvalues --    1.69819   1.70184   1.71517   1.74322   1.76625
 Alpha virt. eigenvalues --    1.77125   1.78280   1.79912   1.80345   1.80553
 Alpha virt. eigenvalues --    1.82020   1.83312   1.83855   1.84969   1.87375
 Alpha virt. eigenvalues --    1.88964   1.89374   1.91290   1.91768   1.94133
 Alpha virt. eigenvalues --    1.94668   1.95700   1.97360   1.98299   1.99342
 Alpha virt. eigenvalues --    2.00038   2.00729   2.01171   2.03998   2.04725
 Alpha virt. eigenvalues --    2.05391   2.06398   2.07133   2.08482   2.10449
 Alpha virt. eigenvalues --    2.12090   2.13548   2.14378   2.15174   2.16316
 Alpha virt. eigenvalues --    2.17983   2.19443   2.21179   2.22391   2.23439
 Alpha virt. eigenvalues --    2.24701   2.25028   2.26783   2.28095   2.28858
 Alpha virt. eigenvalues --    2.29859   2.31755   2.32843   2.35366   2.37116
 Alpha virt. eigenvalues --    2.38475   2.39633   2.39761   2.40005   2.43537
 Alpha virt. eigenvalues --    2.44495   2.46265   2.49836   2.52528   2.52773
 Alpha virt. eigenvalues --    2.53556   2.56722   2.58387   2.60698   2.63128
 Alpha virt. eigenvalues --    2.64571   2.67250   2.68457   2.69401   2.72867
 Alpha virt. eigenvalues --    2.73439   2.75685   2.76600   2.77820   2.79528
 Alpha virt. eigenvalues --    2.80891   2.82716   2.86187   2.92179   2.92503
 Alpha virt. eigenvalues --    2.96100   2.99231   3.00828   3.10622   3.12419
 Alpha virt. eigenvalues --    3.16347   3.19210   3.24561   3.43782   3.98421
 Alpha virt. eigenvalues --    3.99251   4.02914   4.07134   4.09502   4.14626
 Alpha virt. eigenvalues --    4.16548   4.18315   4.21409   4.22618   4.24111
 Alpha virt. eigenvalues --    4.27313   4.29648   4.36426   4.40143   4.41571
 Alpha virt. eigenvalues --    4.50721   4.56239   4.57174   4.69080   4.80878
          Condensed to atoms (all electrons):
               1          2          3          4          5          6
     1  N    7.168873   0.183463  -0.050653  -0.029808   0.002222  -0.052484
     2  C    0.183463   5.150498   0.373730   0.344499  -0.068418   0.319724
     3  H   -0.050653   0.373730   0.530525  -0.031876   0.000118  -0.034739
     4  C   -0.029808   0.344499  -0.031876   4.350367   0.514593  -0.032954
     5  O    0.002222  -0.068418   0.000118   0.514593   8.088242   0.000078
     6  C   -0.052484   0.319724  -0.034739  -0.032954   0.000078   5.248125
     7  H    0.004934  -0.041664   0.001137  -0.004945   0.005664   0.349484
     8  H   -0.007193  -0.033575  -0.005254   0.005222   0.000108   0.362132
     9  C   -0.009992  -0.042107   0.004933  -0.008259  -0.001512   0.359858
    10  C    0.005952  -0.004412   0.000055  -0.000550  -0.000018  -0.087584
    11  H    0.000177   0.000075  -0.000003   0.000024   0.000000  -0.002661
    12  C   -0.000915  -0.002361  -0.000024   0.003140  -0.000435  -0.055252
    13  N   -0.000066   0.000065   0.000000   0.000001   0.000000   0.005294
    14  H   -0.000002   0.000000   0.000000   0.000000   0.000000  -0.000098
    15  C    0.000060  -0.000011   0.000003  -0.000091   0.000002   0.010512
    16  C    0.000025  -0.000115  -0.000019   0.003110  -0.004267  -0.013284
    17  H    0.000004  -0.000451   0.000023   0.000651   0.011055   0.002842
    18  C    0.000001   0.000002   0.000000  -0.000004   0.000000  -0.000209
    19  H    0.000000   0.000000   0.000000   0.000000   0.000000   0.000002
    20  C    0.000000  -0.000013   0.000000   0.000002   0.000072   0.000052
    21  H    0.000000   0.000000   0.000000   0.000001  -0.000004   0.000000
    22  C    0.000000  -0.000001   0.000000  -0.000003   0.000001   0.000006
    23  H    0.000000   0.000000   0.000000   0.000000   0.000000   0.000000
    24  O   -0.004515  -0.091355   0.002016   0.262794  -0.078822  -0.002198
    25  H    0.294519  -0.032935   0.004185  -0.006227   0.000207   0.000650
    26  C   -0.000093   0.007606  -0.000154  -0.021049   0.005611  -0.000162
    27  H   -0.000018  -0.000003   0.000003   0.004514   0.000685  -0.000001
    28  H   -0.000040   0.000175   0.000027  -0.004823   0.006942  -0.000029
    29  H    0.000011  -0.000469  -0.000015  -0.004483   0.003493   0.000119
    30  C    0.281917  -0.018039   0.000164   0.002223  -0.000035  -0.004049
    31  C   -0.089267   0.007323   0.000622  -0.000085   0.000001  -0.000477
    32  C    0.003854  -0.000105   0.000017   0.000002   0.000000   0.000006
    33  C   -0.007154  -0.000133  -0.000048  -0.000037   0.000000   0.000022
    34  O   -0.050857   0.002914   0.004719   0.000112   0.000000  -0.001697
    35  H   -0.000056   0.000000   0.000000   0.000000   0.000000   0.000000
    36  H    0.000410   0.000006  -0.000006   0.000000   0.000000  -0.000005
    37  H    0.000257   0.000003   0.000001   0.000000   0.000000   0.000000
    38  H    0.001463  -0.000011  -0.000010   0.000016   0.000000   0.000009
    39  H    0.000627  -0.000009   0.000001   0.000004   0.000000  -0.000015
               7          8          9         10         11         12
     1  N    0.004934  -0.007193  -0.009992   0.005952   0.000177  -0.000915
     2  C   -0.041664  -0.033575  -0.042107  -0.004412   0.000075  -0.002361
     3  H    0.001137  -0.005254   0.004933   0.000055  -0.000003  -0.000024
     4  C   -0.004945   0.005222  -0.008259  -0.000550   0.000024   0.003140
     5  O    0.005664   0.000108  -0.001512  -0.000018   0.000000  -0.000435
     6  C    0.349484   0.362132   0.359858  -0.087584  -0.002661  -0.055252
     7  H    0.556446  -0.027571  -0.022500   0.004053  -0.000038  -0.005787
     8  H   -0.027571   0.551950  -0.029534  -0.005936   0.003072   0.003367
     9  C   -0.022500  -0.029534   4.951423   0.497445  -0.029234   0.398680
    10  C    0.004053  -0.005936   0.497445   5.048260   0.364417   0.013031
    11  H   -0.000038   0.003072  -0.029234   0.364417   0.544099   0.003409
    12  C   -0.005787   0.003367   0.398680   0.013031   0.003409   4.802142
    13  N   -0.000071   0.000012  -0.055402   0.314536  -0.048373  -0.053902
    14  H    0.000003  -0.000005   0.004141  -0.030725  -0.001988   0.006994
    15  C   -0.000193  -0.000063   0.009284  -0.135736   0.004807   0.449667
    16  C    0.003385  -0.000017  -0.110148   0.015991  -0.000148   0.486546
    17  H    0.001682  -0.000012  -0.007731  -0.000180  -0.000002  -0.037075
    18  C   -0.000004   0.000003   0.012841   0.005069  -0.000114  -0.048927
    19  H    0.000000   0.000000  -0.000229  -0.000032   0.000001   0.004421
    20  C    0.000005   0.000002   0.007749  -0.000412   0.000004  -0.004752
    21  H    0.000001   0.000000  -0.000183   0.000005   0.000000   0.002374
    22  C    0.000001   0.000000  -0.000067  -0.000053   0.000002  -0.036619
    23  H    0.000000   0.000000   0.000009   0.000002   0.000000   0.000976
    24  O    0.000290  -0.000086   0.002468   0.000040  -0.000001  -0.000337
    25  H   -0.000058  -0.000158   0.003111   0.001207   0.000018   0.000041
    26  C   -0.000024   0.000006   0.000019   0.000004   0.000000   0.000050
    27  H    0.000000   0.000000  -0.000003   0.000000   0.000000  -0.000010
    28  H   -0.000001   0.000000   0.000008   0.000000   0.000000   0.000013
    29  H   -0.000007   0.000000  -0.000188  -0.000006   0.000000   0.000061
    30  C    0.000099   0.004045   0.000409   0.000698   0.000497   0.000007
    31  C    0.000006   0.000052   0.000066  -0.000067   0.000206   0.000003
    32  C    0.000000   0.000006   0.000000  -0.000006   0.000018   0.000000
    33  C    0.000000  -0.000011  -0.000053  -0.000202  -0.000016   0.000002
    34  O   -0.000003   0.003225   0.000050  -0.000042   0.000003   0.000000
    35  H    0.000000   0.000000   0.000000   0.000000   0.000000   0.000000
    36  H    0.000000   0.000007   0.000000   0.000000   0.000000   0.000000
    37  H    0.000000   0.000000   0.000000  -0.000001   0.000000   0.000000
    38  H    0.000000  -0.000001  -0.000001  -0.000003   0.000001   0.000000
    39  H    0.000000   0.000004   0.000052   0.000756   0.000072  -0.000007
              13         14         15         16         17         18
     1  N   -0.000066  -0.000002   0.000060   0.000025   0.000004   0.000001
     2  C    0.000065   0.000000  -0.000011  -0.000115  -0.000451   0.000002
     3  H    0.000000   0.000000   0.000003  -0.000019   0.000023   0.000000
     4  C    0.000001   0.000000  -0.000091   0.003110   0.000651  -0.000004
     5  O    0.000000   0.000000   0.000002  -0.004267   0.011055   0.000000
     6  C    0.005294  -0.000098   0.010512  -0.013284   0.002842  -0.000209
     7  H   -0.000071   0.000003  -0.000193   0.003385   0.001682  -0.000004
     8  H    0.000012  -0.000005  -0.000063  -0.000017  -0.000012   0.000003
     9  C   -0.055402   0.004141   0.009284  -0.110148  -0.007731   0.012841
    10  C    0.314536  -0.030725  -0.135736   0.015991  -0.000180   0.005069
    11  H   -0.048373  -0.001988   0.004807  -0.000148  -0.000002  -0.000114
    12  C   -0.053902   0.006994   0.449667   0.486546  -0.037075  -0.048927
    13  N    7.016919   0.321323   0.271515   0.011756  -0.000094  -0.094100
    14  H    0.321323   0.399029  -0.026693  -0.000120   0.000004  -0.004265
    15  C    0.271515  -0.026693   4.761177  -0.062772   0.005151   0.480017
    16  C    0.011756  -0.000120  -0.062772   5.159581   0.345653  -0.059118
    17  H   -0.000094   0.000004   0.005151   0.345653   0.566552   0.000347
    18  C   -0.094100  -0.004265   0.480017  -0.059118   0.000347   5.055997
    19  H   -0.006093   0.002826  -0.039961   0.000465   0.000017   0.348439
    20  C   -0.000171  -0.000002  -0.042750   0.504863  -0.042002  -0.027598
    21  H    0.000003   0.000000   0.001022  -0.038559  -0.004829   0.004654
    22  C    0.005359  -0.000086  -0.000484  -0.024075   0.004320   0.530352
    23  H   -0.000111  -0.000002   0.002793   0.004549  -0.000165  -0.040156
    24  O   -0.000001   0.000000  -0.000078   0.000184  -0.000552   0.000004
    25  H   -0.000051  -0.000001  -0.000013  -0.000014  -0.000003   0.000001
    26  C   -0.000001   0.000000   0.000015  -0.001832   0.000034   0.000011
    27  H    0.000000   0.000000   0.000000   0.000014   0.000004   0.000000
    28  H    0.000000   0.000000   0.000000   0.000069  -0.000059   0.000000
    29  H    0.000002   0.000000  -0.000013   0.004449   0.000845  -0.000047
    30  C   -0.000007   0.000000  -0.000003   0.000000   0.000000   0.000000
    31  C    0.000000   0.000000   0.000000   0.000000   0.000000   0.000000
    32  C    0.000000   0.000000   0.000000   0.000000   0.000000   0.000000
    33  C   -0.000002   0.000000   0.000001   0.000000   0.000000   0.000000
    34  O    0.000000   0.000000   0.000000   0.000000   0.000000   0.000000
    35  H    0.000000   0.000000   0.000000   0.000000   0.000000   0.000000
    36  H    0.000000   0.000000   0.000000   0.000000   0.000000   0.000000
    37  H    0.000000   0.000000   0.000000   0.000000   0.000000   0.000000
    38  H    0.000000   0.000000   0.000000   0.000000   0.000000   0.000000
    39  H   -0.000005   0.000000  -0.000003   0.000000   0.000000   0.000000
              19         20         21         22         23         24
     1  N    0.000000   0.000000   0.000000   0.000000   0.000000  -0.004515
     2  C    0.000000  -0.000013   0.000000  -0.000001   0.000000  -0.091355
     3  H    0.000000   0.000000   0.000000   0.000000   0.000000   0.002016
     4  C    0.000000   0.000002   0.000001  -0.000003   0.000000   0.262794
     5  O    0.000000   0.000072  -0.000004   0.000001   0.000000  -0.078822
     6  C    0.000002   0.000052   0.000000   0.000006   0.000000  -0.002198
     7  H    0.000000   0.000005   0.000001   0.000001   0.000000   0.000290
     8  H    0.000000   0.000002   0.000000   0.000000   0.000000  -0.000086
     9  C   -0.000229   0.007749  -0.000183  -0.000067   0.000009   0.002468
    10  C   -0.000032  -0.000412   0.000005  -0.000053   0.000002   0.000040
    11  H    0.000001   0.000004   0.000000   0.000002   0.000000  -0.000001
    12  C    0.004421  -0.004752   0.002374  -0.036619   0.000976  -0.000337
    13  N   -0.006093  -0.000171   0.000003   0.005359  -0.000111  -0.000001
    14  H    0.002826  -0.000002   0.000000  -0.000086  -0.000002   0.000000
    15  C   -0.039961  -0.042750   0.001022  -0.000484   0.002793  -0.000078
    16  C    0.000465   0.504863  -0.038559  -0.024075   0.004549   0.000184
    17  H    0.000017  -0.042002  -0.004829   0.004320  -0.000165  -0.000552
    18  C    0.348439  -0.027598   0.004654   0.530352  -0.040156   0.000004
    19  H    0.608732   0.004389  -0.000173  -0.040540  -0.005469   0.000000
    20  C    0.004389   4.907189   0.358255   0.521814  -0.039990  -0.000015
    21  H   -0.000173   0.358255   0.599363  -0.041161  -0.005280   0.000000
[...]
 0.00061452,-0.00056145,0.00001826,-0.00000923,0.00005542,-0.00006526,0
 .00004650,0.00028708,0.00012657,-0.00013063,-0.00004858,-0.00010322,0.
 00006624,-0.00006281,-0.00000359,-0.00001919,-0.00001447,-0.00000827,0
 .00000477,-0.00001559,0.00000068,0.00001037,0.00000389,-0.00002073,-0.
 00001363,0.00002090,-0.00000871,-0.00001264,-0.00000525,-0.00001492,-0
 .00000053,0.00000828,0.00002820,0.00000057,-0.00002038,-0.00000058,0.0
 0000026,0.00000534,0.00000761,0.00001931,-0.00000947,0.00000068,0.0000
 0345,0.00000108,-0.00000498,0.00000051,-0.00000198,-0.00000694,-0.0000
 0278,0.00000230,0.00000124,0.00000325,-0.00000104,0.00000297,0.0000031
 0,-0.00000294,0.00000272,-0.00000234,-0.00000013,0.00000664,-0.0000051
 3,-0.00000145,0.00000378,0.00000028,-0.00000123,0.00004549,-0.00004975
 ,-0.00011123,0.00012951,0.00030033,0.00015704,-0.00003092,0.00003184,0
 .00004250,0.00000419,-0.00000052,-0.00000936,0.00000771,-0.00000718,-0
 .00000005,0.00000565,-0.00000697,-0.00000294,0.00588397,0.00900067,0.0
 0079236,0.00758953,-0.00008261,0.00993882,0.08739024,-0.10695942,0.094
 04672,-0.00368636,-0.00561989,-0.00092114,-0.00053744,-0.00064527,-0.0
 0023273,-0.09857477,0.10305855,-0.00000793,-0.00033312,0.00067238,0.00
 006939,-0.00027212,0.00000041,0.00002912,-0.00004249,0.00001058,0.0000
 5449,-0.00009418,0.00002073,-0.00002127,0.00002603,-0.00000638,-0.0000
 2480,0.00004173,-0.00004095,-0.00001729,-0.00001063,-0.00000935,0.0000
 2345,0.00001641,0.00002515,0.00001369,0.00000563,-0.00001867,0.0000072
 0,0.00003222,-0.00001726,0.00000222,0.00001307,-0.00000399,0.00001320,
 -0.00001221,-0.00000057,-0.00003073,-0.00002234,0.00001962,-0.00000601
 ,0.00000951,0.00000186,-0.00000757,-0.00001117,0.00000886,0.00000019,-
 0.00000329,-0.00000240,0.00000486,-0.00000137,0.00000209,0.00000514,0.
 00000084,-0.00000372,-0.00000134,-0.00000272,0.00000257,-0.00000167,-0
 .00000335,0.00000115,-0.00000138,0.00000187,0.00000078,-0.00000429,0.0
 0000325,-0.00000041,-0.00000303,-0.00000001,0.00000178,-0.00004402,0.0
 0003828,0.00004062,-0.00003272,0.00009533,0.00009095,0.00002531,-0.000
 01808,-0.00002348,-0.00000028,-0.00000005,0.00000341,-0.00000334,0.000
 00470,0.00000119,-0.00000502,0.00000331,0.00000168,0.00346298,0.002175
 89,-0.00187410,0.00782494,-0.00445341,0.00814254,-0.10765460,0.0965008
 3,-0.18259430,0.00000783,-0.00232322,0.00053983,-0.00187934,0.00041368
 ,0.00094567,0.11444881,-0.10390752,0.18441714,0.00141925,-0.00036279,-
 0.00089416,0.00000563,0.00025949,-0.00015585,-0.00006635,0.00008384,-0
 .00000042,-0.00012714,0.00017847,0.00020603,0.00007456,-0.00009180,-0.
 00005521,0.00001678,-0.00005173,0.00007174,0.00003698,0.00001682,0.000
 01555,-0.00004265,-0.00002958,-0.00005559,-0.00001840,-0.00001845,0.00
 002876,-0.00004512,-0.00003990,0.00002707,-0.00001270,-0.00001694,0.00
 001475,-0.00002756,0.00001198,0.00000638,0.00005986,0.00001984,-0.0000
 5273,0.00000696,-0.00000320,0.00001127,0.00001658,0.00003209,-0.000016
 12,-0.00000177,0.00000580,-0.00000070,-0.00000743,0.00000298,0.0000000
 7,-0.00001114,-0.00000328,0.00000353,0.00000341,0.00000597,-0.00000215
 ,0.00000590,0.00000299,-0.00000617,0.00000468,-0.00000336,-0.00000025,
 0.00001201,-0.00000828,-0.00000301,0.00000611,0.00000032,-0.00000185,0
 .00007847,-0.00008173,-0.00019727,0.00027388,-0.00015348,0.00010283,-0
 .00003442,0.00003169,0.00006362,0.00000963,-0.00000460,-0.00001754,0.0
 0001031,-0.00001083,-0.00000394,0.00000778,-0.00000792,-0.00000717,-0.
 00334285,-0.00315967,0.00354614,-0.00478324,-0.00301209,0.02867881,-0.
 08290949,-0.00107965,0.08594293,-0.00108434,0.00710426,0.00045354,0.00
 155639,-0.00040307,-0.00231698,0.00825174,0.00177845,-0.01633245,0.081
 45083,-0.00077487,0.00052657,0.00053125,0.00021078,0.00023742,0.000285
 80,0.00004299,-0.00003741,-0.00002634,0.00007533,-0.00004483,-0.000115
 07,-0.00009371,0.00006304,0.00001618,0.00005533,0.00000442,0.00001144,
 -0.00001313,-0.00000129,0.00000630,0.00002264,0.00002334,0.00002200,0.
 00002636,0.00000443,-0.00003022,0.00000598,0.00007363,-0.00002381,-0.0
 0000765,0.00000400,-0.00000892,0.00000921,-0.00003562,0.00000780,-0.00
 003213,-0.00006678,0.00006471,-0.00002263,0.00000336,-0.00000694,-0.00
 001056,0.00000791,-0.00000147,-0.00000726,0.00000817,-0.00000851,0.000
 00735,-0.00000222,0.00000624,-0.00000414,-0.00000393,0.00000486,-0.000
 00310,-0.00000243,0.00000171,0.00000739,-0.00000070,-0.00000545,0.0000
 0211,-0.00000044,0.00000089,0.00000233,-0.00000450,0.00000076,-0.00000
 053,-0.00000071,0.00000077,-0.00006923,0.00003570,0.00007357,-0.000168
 94,0.00004513,-0.00006547,0.00003652,-0.00001441,-0.00003343,0.0000002
 1,0.00000446,0.00000661,-0.00000473,0.00000217,0.00000376,-0.00000905,
 0.00000720,0.00000181,-0.00180005,-0.00564425,-0.00328760,0.00384712,0
 .00642437,-0.01209767,-0.00271231,-0.04586536,0.03385569,0.00672309,0.
 00857530,0.00295287,-0.00022011,-0.00064522,0.00105182,-0.00455434,0.0
 0166036,0.01212186,-0.00044932,0.03527925,0.00066336,-0.00015990,-0.00
 019780,0.00000028,0.00011100,-0.00006358,-0.00002181,0.00001597,0.0000
 2508,-0.00002940,0.00003700,0.00000941,0.00001662,-0.00002599,0.000000
 44,0.00001406,-0.00000203,0.00003097,0.00000559,0.00000507,0.00000547,
 -0.00000112,-0.00000644,-0.00000314,-0.00000478,-0.00000110,0.00000734
 ,0.00001120,-0.00001265,0.00000578,0.00000556,-0.00000205,-0.00000099,
 -0.00000732,0.00000155,0.00000171,0.00000788,0.00000524,0.00000036,-0.
 00000106,-0.00000360,-0.00000453,-0.00000291,0.00000626,-0.00000251,-0
 .00000088,0.00000251,0.00000011,-0.00000148,0.00000054,-0.00000021,-0.
 00000176,-0.00000030,0.00000130,-0.00000004,0.00000066,-0.00000068,0.0
 0000070,0.00000121,-0.00000068,0.00000083,-0.00000084,-0.00000013,0.00
 000087,-0.00000120,0.00000061,0.00000137,0.00000013,-0.00000083,0.0000
 1789,-0.00002799,-0.00001339,0.00005150,-0.00001769,-0.00007701,-0.000
 00988,0.00001190,0.00001151,0.00000102,0.00000174,-0.00000096,0.000002
 96,-0.00000428,0.00000067,0.00000138,-0.00000169,-0.00000121,-0.001471
 48,-0.00088373,-0.00179268,0.00421481,0.00057523,-0.00466157,0.0914469
 2,0.03077287,-0.31487508,0.00166768,0.00238057,0.00149129,-0.00245530,
 0.00124009,-0.00038125,0.00623417,0.00063643,-0.01073869,-0.10056079,-
 0.03420917,0.33101476,-0.00001890,0.00015717,-0.00013070,0.00045548,-0
 .00005656,0.00001806,-0.00008166,0.00006196,-0.00009310,0.00007035,-0.
 00013144,0.00006613,-0.00007925,0.00009749,-0.00003398,-0.00001487,0.0
 0002049,0.00001399,-0.00001410,-0.00000271,-0.00001127,0.00000064,-0.0
 0000493,0.00000730,0.00000910,-0.00006730,-0.00001972,-0.00003892,0.00
 005439,-0.00007429,0.00000132,0.00004332,0.00004054,0.00003271,0.00000
 232,-0.00001373,-0.00002526,-0.00001170,-0.00001565,-0.00000450,0.0000
 2647,-0.00000139,-0.00001913,-0.00002285,0.00003046,0.00000817,-0.0000
 1950,-0.00000374,0.00000803,-0.00000007,0.00000499,0.00002884,0.000007
 15,-0.00001592,-0.00000398,-0.00000816,0.00000433,-0.00001333,-0.00001
 236,0.00000893,-0.00000415,0.00000392,0.00000139,-0.00001851,0.0000189
 2,-0.00000030,-0.00000779,0.00000069,0.00000273,-0.00006767,0.00008904
 ,-0.00000877,0.00040832,-0.00064892,-0.00000538,0.00006694,-0.00005847
 ,-0.00006892,0.00000239,-0.00000586,0.00000159,-0.00000933,0.00001428,
 0.00000131,-0.00001100,0.00000712,0.00000356,-0.00211199,0.00095667,0.
 00261742,0.00877365,-0.00696814,0.00804686,0.00059535,-0.00091421,0.00
 128517,-0.16233836,0.08703927,-0.10316989,0.00084039,-0.00061850,0.000
 55406,0.00007584,0.00010488,0.00001885,0.00011302,-0.00010954,-0.00018
 079,0.17397906,0.00031721,0.00036472,0.00013076,-0.00010039,0.00023973
 ,-0.00011926,-0.00000719,0.00002972,-0.00000201,-0.00008600,0.00008103
 ,-0.00007714,0.00008043,-0.00009173,0.00004261,0.00001553,-0.00007231,
 0.00005448,0.00002382,0.00002518,0.00001352,-0.00000381,0.00000163,-0.
 00000781,-0.00001267,-0.00002704,0.00002239,-0.00003916,-0.00003015,-0
 .00000199,-0.00000302,0.00001119,0.00001885,-0.00000413,0.00001232,-0.
 00000135,0.00004343,0.00002887,-0.00005096,0.00000321,0.00000441,0.000
 00660,-0.00000329,0.00001096,0.00000248,0.00000489,-0.00000307,0.00000
 637,-0.00000764,0.00000185,-0.00000542,0.00000443,0.00000033,-0.000003
 71,0.00000105,0.00000277,-0.00000070,-0.00000408,0.00000160,0.00000277
 ,0.00000032,-0.00000157,-0.00000041,-0.00000140,0.00000185,-0.00000087
 ,0.00000306,0.00000086,-0.00000126,0.00011085,-0.00003950,0.00002753,-
 0.00058139,-0.00079697,-0.00012552,-0.00006476,0.00005212,0.00005991,-
 0.00000796,0.00000170,-0.00000045,0.00000673,-0.00000795,-0.00000178,0
 .00001602,-0.00001178,-0.00000206,0.00024116,0.00113580,-0.00045787,0.
 00094794,-0.00138415,0.00133884,0.00000201,-0.00011627,-0.00123069,0.0
 8633625,-0.11474409,0.07792779,-0.00020297,-0.00005409,0.00042532,-0.0
 0018240,0.00046694,0.00001179,-0.00014312,-0.00013177,-0.00007466,-0.0
 9541769,0.11935829,-0.00029006,0.00016994,0.00068119,0.00000310,-0.000
 09886,0.00038510,0.00009532,-0.00007236,-0.00003027,0.00009585,-0.0001
 0969,-0.00029306,-0.00007691,0.00007387,0.00007608,0.00000318,0.000033
 33,-0.00002441,-0.00002603,-0.00000961,-0.00001195,0.00002946,0.000030
 27,0.00003605,0.00002517,0.00001017,-0.00002741,0.00002128,0.00004894,
 -0.00002882,0.00000381,0.00002211,-0.00000655,0.00001945,-0.00002350,-
 0.00000020,-0.00004287,-0.00003885,0.00004941,-0.00001789,0.00000638,-
 0.00000896,-0.00002111,-0.00001252,0.00001118,-0.00000108,0.00000003,-
 0.00000125,0.00000601,-0.00000264,0.00000036,0.00000705,0.00000023,-0.
 00000116,-0.00000326,-0.00000364,0.00000208,-0.00000171,-0.00000159,0.
 00000297,-0.00000194,0.00000125,0.00000028,-0.00000727,0.00000373,0.00
 000206,-0.00000309,-0.00000032,0.00000105,-0.00004828,0.00005827,0.000
 19245,-0.00036105,0.00000321,-0.00060666,0.00001271,-0.00001088,-0.000
 03412,-0.00001000,0.00000561,0.00001563,-0.00000596,0.00000428,0.00000
 202,-0.00000325,0.00000513,0.00000512,0.00503349,-0.00173733,-0.002010
 72,-0.02054921,0.01604927,-0.02003590,-0.00187269,0.00037538,0.0016242
 5,-0.10080649,0.07672703,-0.13888854,-0.00092597,0.00119010,-0.0025538
 9,0.00123693,-0.00057808,0.00016076,-0.00010716,-0.00009733,0.00037927
 ,0.10859218,-0.08504395,0.15206157,0.00020273,-0.00000295,-0.00019676,
 -0.00019410,0.00006731,-0.00010209,0.00002816,-0.00000196,0.00006167,-
 0.00000563,0.00011376,-0.00025868,0.00008907,-0.00013223,0.00011940,0.
 00000159,-0.00003828,0.00002736,0.00002671,0.00001311,0.00000277,-0.00
 000768,-0.00000191,-0.00001529,-0.00002900,-0.00001521,0.00003497,-0.0
 0003125,-0.00007127,0.00000604,-0.00000702,0.00001186,0.00004785,-0.00
 000627,0.00003402,-0.00000410,0.00004041,0.00006059,-0.00007649,0.0000
 3106,0.00000085,0.00001718,0.00000500,-0.00001222,0.00000024,0.0000068
 6,-0.00000077,0.00001068,-0.00000990,0.00000199,-0.00000909,0.00000463
 ,0.00000253,-0.00000019,0.00000163,0.00000173,-0.00000260,-0.00000956,
 0.00000462,0.00000740,-0.00000114,-0.00000140,-0.00000172,-0.00000591,
 0.00000538,0.00000246,0.00000155,0.00000086,-0.00000213,0.00013557,-0.
 00013445,0.00020699,-0.00063785,-0.00008801,-0.00141936,-0.00009335,0.
 00008690,0.00004609,-0.00001279,0.00002284,0.00001106,0.00001664,-0.00
 002166,0.00000941,0.00001572,-0.00001660,-0.00000140,-0.00015140,0.000
 13108,-0.00059117,-0.00413729,0.01219517,0.00705283,0.00028687,-0.0004
 9495,0.00214596,-0.05310859,0.03603941,0.01345372,-0.00005338,-0.00017
 745,0.00026131,0.00055935,0.00074848,0.00025274,-0.00103819,-0.0011275
 4,-0.00007124,-0.00293351,0.01970354,0.00968869,0.05565739,0.00023932,
 0.00031614,0.00060471,-0.00022196,0.00015847,0.00016598,0.00004994,-0.
 00001795,0.00004198,0.00000981,0.00002411,-0.00028642,0.00003233,-0.00
 003628,0.00010946,-0.00001357,-0.00006195,0.00001750,0.00000925,0.0000
 1915,0.00000016,0.00000969,0.00001346,0.00001672,-0.00002313,-0.000005
 49,0.00001682,-0.00000500,-0.00005801,-0.00000448,0.00000128,0.0000169
 3,0.00004312,0.00000940,0.00003672,-0.00001338,0.00000731,0.00006482,-
 0.00005539,0.00003545,-0.00000161,0.00001264,0.00000595,-0.00003702,0.
 00001012,0.00001003,-0.00000640,0.00001184,-0.00000531,0.00000098,-0.0
 0000908,0.00001063,0.00000520,-0.00000161,0.00000056,-0.00000192,-0.00
 000236,-0.00001467,0.00000294,0.00001298,-0.00000492,0.00000116,-0.000
 00231,-0.00001320,0.00001165,0.00000473,-0.00000331,0.00000031,-0.0000
 0136,-0.00000981,-0.00002230,0.00018840,-0.00053806,-0.00026693,-0.000
 19650,-0.00003290,0.00002063,-0.00004055,-0.00001356,0.00001574,0.0000
 2232,0.00000363,-0.00000584,0.00000778,0.00000406,-0.00000494,0.000006
 53,0.00178338,-0.00063375,-0.00004162,0.00092102,0.00679087,0.00011575
 ,-0.00092387,0.00026932,0.00005263,0.03508968,-0.25932683,-0.09121423,
 -0.00055983,0.00020759,-0.00010171,-0.00018907,0.00005678,-0.00003044,
 -0.00020788,-0.00021700,-0.00007430,0.00123287,-0.01364951,-0.00581438
 ,-0.03932007,0.28144759,-0.00064210,0.00113545,0.00074666,-0.00047194,
 0.00034882,-0.00011696,0.00004911,-0.00004872,0.00005086,-0.00010920,0
 .00008577,-0.00025246,0.00009632,-0.00010164,0.00009108,0.00005549,-0.
 00009293,0.00004182,0.00003235,0.00002866,0.00002457,0.00000303,0.0000
 0981,0.00000204,-0.00002314,0.00000461,0.00004569,-0.00000100,-0.00006
 816,0.00001788,0.00001189,0.00000220,0.00000184,-0.00001155,0.00001952
 ,0.00000088,0.00004152,0.00004994,-0.00004248,0.00000702,-0.00000833,-
 0.00000227,-0.00000767,0.00000818,-0.00000286,0.00000451,-0.00000040,0
 .00001203,-0.00001143,0.00000153,-0.00001052,0.00000061,0.00000116,-0.
 00000036,0.00000156,0.00000388,-0.00000266,-0.00000404,0.00000552,0.00
 000412,-0.00000031,-0.00000233,-0.00000144,0.00000025,0.00000016,0.000
 00061,0.00000387,0.00000075,-0.00000244,0.00019123,-0.00007234,0.00011
 117,-0.00155902,-0.00058712,-0.00117293,-0.00010148,0.00007416,0.00011
 974,-0.00000590,-0.00000052,-0.00000230,0.00000872,-0.00001272,-0.0000
 0855,0.00002607,-0.00001637,-0.00000926,0.00255591,-0.00176644,0.00021
 066,0.00675328,-0.02836927,-0.01303954,-0.00051659,0.00128706,-0.00373
 841,0.01394474,-0.09310582,-0.08939819,-0.00066460,0.00066739,0.000334
 76,-0.00030650,-0.00083039,-0.00010869,0.00177612,0.00136971,0.0004779
 8,-0.00165985,0.01795751,0.00866481,-0.01858825,0.10202630,0.09709594,
 0.00058354,0.00039642,-0.00045845,0.00034801,0.00007600,-0.00016460,-0
 .00006537,0.00007848,-0.00007913,-0.00001966,-0.00002468,0.00006525,0.
 00002829,-0.00000230,-0.00001207,-0.00000679,-0.00005211,0.00004885,0.
 00001273,0.00001670,0.00000570,-0.00001516,-0.00001218,-0.00001054,-0.
 00005993,0.00003667,0.00002352,0.00005430,-0.00010808,0.00005532,-0.00
 000812,0.00002441,0.00005392,0.00001989,0.00004026,-0.00002711,-0.0000
 3951,0.00007041,-0.00006651,0.00005135,0.00000362,0.00003361,0.0000322
 6,-0.00004763,-0.00000034,-0.00000267,-0.00000516,0.00000625,-0.000003
 28,0.00000316,-0.00000316,-0.00000207,0.00000614,-0.00000484,0.0000056
 5,0.00000277,0.00000082,-0.00000374,0.00000339,-0.00000006,-0.00000357
 ,0.00000326,0.00000020,-0.00000261,-0.00000140,0.00000095,-0.00000188,
 0.00000056,0.00000101,0.00001806,0.00001933,-0.00003811,0.00022501,-0.
 00021343,-0.00058637,-0.00001010,-0.00000635,0.00001365,-0.00000212,-0
 .00000581,-0.00000389,0.00000120,0.00000297,-0.00000427,0.00000473,-0.
 00000464,-0.00000016,-0.00211309,0.00128820,-0.00026546,-0.01064861,-0
 .00327600,0.00372460,0.00079130,-0.00126566,0.00198524,-0.24016182,-0.
 11009301,-0.00053576,0.00066580,-0.00030136,0.00017509,-0.00016171,-0.
 00080616,-0.00018535,0.00013202,0.00112012,0.00045539,-0.01765344,-0.0
 1098883,0.00030963,0.00536287,0.00263450,-0.00087905,0.26264824,0.0004
 6002,0.00024875,-0.00005312,0.00051148,-0.00005083,0.00000356,-0.00009
 875,0.00007341,-0.00012728,0.00004341,-0.00017000,0.00019684,-0.000106
 54,0.00014050,-0.00009654,0.00001124,0.00003457,0.00003288,-0.00001876
 ,-0.00000566,-0.00001372,0.00000095,-0.00000453,0.00000099,0.00001415,
 -0.00006606,-0.00003171,-0.00005229,0.00009799,-0.00005507,0.00000391,
 0.00002861,-0.00001086,0.00004830,-0.00003138,-0.00001736,-0.00003858,
 -0.00005124,0.00001879,-0.00003422,0.00002590,-0.00000009,-0.00000207,
 -0.00000811,0.00002721,-0.00000249,-0.00001540,-0.00001087,0.00001016,
 0.,0.00000890,0.00001552,0.00000210,-0.00001776,-0.00000112,-0.0000029
 6,0.00000714,0.00000178,-0.00001016,-0.00000293,-0.00000236,0.00000461
 ,0.00000303,-0.00000622,0.00000250,-0.00000389,-0.00000465,0.00000027,
 0.00000450,-0.00001415,0.00015412,-0.00009351,0.00047318,-0.00189152,0
 .00108540,0.00008063,-0.00007806,-0.00005582,-0.00000298,-0.00002729,-
 0.00000699,-0.00001865,0.00002919,-0.00000898,-0.00000746,0.00001001,0
 .00000751,-0.00188656,0.00075750,0.00032008,0.00063134,0.00050351,0.00
 026947,0.00051479,-0.00012485,-0.00004705,-0.10999802,-0.11123554,0.00
 206507,0.00062537,-0.00021055,-0.00025813,0.00010112,0.00032745,0.0000
 2548,-0.00019233,-0.00027136,-0.00029639,0.01514050,0.00932809,-0.0011
 6299,-0.02758708,-0.01512683,-0.00000460,0.12138743,0.11761325,-0.0010
 9971,0.00013762,0.00004872,-0.00019998,0.00014116,-0.00005513,0.000015
 40,-0.00005090,0.00004904,-0.00006845,0.00006301,0.00010168,0.00003499
 ,-0.00004847,-0.00003138,-0.00001036,-0.00004971,-0.00002556,0.0000082
 6,-0.00000924,0.00002823,0.00000687,0.00000580,-0.00000602,0.00000486,
 0.00024243,-0.00004423,0.00014467,-0.00007732,0.00026596,-0.00002055,-
 0.00010033,-0.00019674,-0.00002005,-0.00005603,0.00001216,-0.00008602,
 -0.00005440,0.00005935,-0.00001388,-0.00001252,0.00001514,0.00010329,0
 .00000983,-0.00005582,-0.00002977,0.00004029,-0.00001147,-0.00000279,-
 0.00000154,0.00000205,-0.00007055,-0.00001354,0.00002459,0.00000749,0.
 00001416,-0.00000309,0.00004195,0.00002785,-0.00003192,0.00001008,-0.0
 0000519,-0.00000020,0.00005022,-0.00005542,-0.00000177,0.00001075,-0.0
 0000156,-0.00000167,0.00002976,-0.00002842,-0.00010867,-0.00045492,0.0
 0137754,-0.00005786,-0.00001953,0.00002311,0.00006734,-0.00000050,-0.0
 0001185,-0.00001452,0.00000432,-0.00000565,-0.00000989,0.00000666,-0.0
 0000178,-0.00000092,0.00177272,-0.00072938,0.00050000,0.03009522,0.015
 23677,-0.00008053,-0.00021704,0.00114493,-0.00373126,0.00184944,0.0027
 4311,-0.04833873,-0.00069700,-0.00012016,0.00005639,0.00054841,0.00074
 602,0.00033119,-0.00016163,-0.00238102,-0.00064712,-0.01581248,-0.0108
 3967,0.00021014,-0.01212630,-0.00559836,-0.00014281,-0.00363381,-0.001
 70118,0.05182531||0.00000025,-0.00000002,0.00000074,0.00000027,0.00000
 118,0.00000120,0.00000004,0.00000133,0.00000138,-0.00000026,0.00000059
 ,0.00000091,0.00000033,0.00000056,0.00000250,-0.00000043,0.00000179,-0
 .00000016,0.00000008,0.00000198,0.00000076,0.00000016,0.00000201,-0.00
 000028,0.00000081,0.00000055,-0.00000057,-0.00000006,0.00000082,-0.000
 00135,-0.00000004,0.00000063,-0.00000203,-0.00000058,0.00000083,-0.000
 00062,-0.00000039,0.00000004,-0.00000206,0.,-0.00000013,-0.00000276,0.
 00000018,0.00000013,-0.00000131,0.00000002,0.00000069,0.00000030,0.000
 00005,0.00000109,0.00000112,-0.00000005,-0.00000032,-0.00000140,-0.000
 00011,-0.00000073,-0.00000225,0.00000006,0.00000028,0.00000024,0.00000
 006,0.00000030,0.00000088,0.,-0.00000024,-0.00000070,-0.00000003,-0.00
 000057,-0.00000077,0.00000007,-0.00000073,0.00000207,-0.00000031,-0.00
 000059,0.00000044,0.00000008,-0.00000132,0.00000203,-0.00000003,-0.000
 00202,0.00000210,0.00000007,-0.00000104,0.00000308,0.,-0.00000102,0.00
 000196,0.00000035,0.00000039,-0.00000021,-0.00000022,-0.00000029,-0.00
 000062,0.00000032,-0.00000043,-0.00000079,0.,-0.00000140,-0.00000072,-
 0.00000007,0.00000130,0.00000035,-0.00000017,-0.00000070,-0.00000115,-
 0.00000011,0.00000059,-0.00000069,-0.00000008,-0.00000208,-0.00000091,
 -0.00000010,-0.00000188,0.00000025,-0.00000017,-0.00000156,-0.00000095
 |||@


 I CLAIM NOT TO HAVE CONTROLLED EVENTS,
 BUT CONFESS PLAINLY THAT EVENTS HAVE CONTROLLED ME.

                                         A. LINCOLN
 Job cpu time:       0 days  0 hours 26 minutes  9.0 seconds.
 File lengths (MBytes):  RWF=    530 Int=      0 D2E=      0 Chk=     11 Scr=      1
 Normal termination of Gaussian 09 at Thu Jan 25 19:08:27 2024.
