 Entering Link 1 = C:\G09W\l1.exe PID=     29064.
  
 Copyright (c) 1988,1990,1992,1993,1995,1998,2003,2009,2013,
            Gaussian, Inc.  All Rights Reserved.
  
 This is part of the Gaussian(R) 09 program.  It is based on
 the Gaussian(R) 03 system (copyright 2003, Gaussian, Inc.),
 the Gaussian(R) 98 system (copyright 1998, Gaussian, Inc.),
 the Gaussian(R) 94 system (copyright 1995, Gaussian, Inc.),
 the Gaussian 92(TM) system (copyright 1992, Gaussian, Inc.),
 the Gaussian 90(TM) system (copyright 1990, Gaussian, Inc.),
 the Gaussian 88(TM) system (copyright 1988, Gaussian, Inc.),
 the Gaussian 86(TM) system (copyright 1986, Carnegie Mellon
 University), and the Gaussian 82(TM) system (copyright 1983,
 Carnegie Mellon University). Gaussian is a federally registered
 trademark of Gaussian, Inc.
  
 This software contains proprietary and confidential information,
 including trade secrets, belonging to Gaussian, Inc.
  
 This software is provided under written license and may be
 used, copied, transmitted, or stored only in accord with that
 written license.
  
 The following legend is applicable only to US Government
 contracts under FAR:
  
                    RESTRICTED RIGHTS LEGEND
  
 Use, reproduction and disclosure by the US Government is
 subject to restrictions as set forth in subparagraphs (a)
 and (c) of the Commercial Computer Software - Restricted
 Rights clause in FAR 52.227-19.
  
 Gaussian, Inc.
 340 Quinnipiac St., Bldg. 40, Wallingford CT 06492
  
  
 ---------------------------------------------------------------
 Warning -- This program may not be used in any manner that
 competes with the business of Gaussian, Inc. or will provide
 assistance to any competitor of Gaussian, Inc.  The licensee
 of this program is prohibited from giving any competitor of
 Gaussian, Inc. access to this program.  By using this program,
 the user acknowledges that Gaussian, Inc. is engaged in the
 business of creating and licensing software in the field of
 computational chemistry and represents and warrants to the
 licensee that it is not a competitor of Gaussian, Inc. and that
 it will not use this program in any manner prohibited above.
 ---------------------------------------------------------------
  

 Cite this work as:
 Gaussian 09, Revision D.01,
 M. J. Frisch, G. W. Trucks, H. B. Schlegel, G. E. Scuseria, 
 M. A. Robb, J. R. Cheeseman, G. Scalmani, V. Barone, B. Mennucci, 
 G. A. Petersson, H. Nakatsuji, M. Caricato, X. Li, H. P. Hratchian, 
 A. F. Izmaylov, J. Bloino, G. Zheng, J. L. Sonnenberg, M. Hada, 
 M. Ehara, K. Toyota, R. Fukuda, J. Hasegawa, M. Ishida, T. Nakajima, 
 Y. Honda, O. Kitao, H. Nakai, T. Vreven, J. A. Montgomery, Jr., 
 J. E. Peralta, F. Ogliaro, M. Bearpark, J. J. Heyd, E. Brothers, 
 K. N. Kudin, V. N. Staroverov, T. Keith, R. Kobayashi, J. Normand, 
 K. Raghavachari, A. Rendell, J. C. Burant, S. S. Iyengar, J. Tomasi, 
 M. Cossi, N. Rega, J. M. Millam, M. Klene, J. E. Knox, J. B. Cross, 
 V. Bakken, C. Adamo, J. Jaramillo, R. Gomperts, R. E. Stratmann, 
 O. Yazyev, A. J. Austin, R. Cammi, C. Pomelli, J. W. Ochterski, 
 R. L. Martin, K. Morokuma, V. G. Zakrzewski, G. A. Voth, 
 P. Salvador, J. J. Dannenberg, S. Dapprich, A. D. Daniels, 
 O. Farkas, J. B. Foresman, J. V. Ortiz, J. Cioslowski, 
 and D. J. Fox, Gaussian, Inc., Wallingford CT, 2013.
 
 ******************************************
 Gaussian 09:  IA32W-G09RevD.01 24-Apr-2013
                07-Jan-2024 
 ******************************************
 %chk=D:\backups\Depo1\ChemChem\3\MAC_sunum\MAC2.chk
 %nprocshared=8
 Will use up to    8 processors via shared memory.
 ---------------------------
 # opt freq b3lyp/6-31g(d,p)
 ---------------------------
 1/14=-1,18=20,19=15,26=3,38=1/1,3;
 2/9=110,12=2,17=6,18=5,40=1/2;
 3/5=1,6=6,7=101,11=2,16=1,25=1,30=1,71=1,74=-5/1,2,3;
 4//1;
 5/5=2,38=5/2;
 6/7=2,8=2,9=2,10=2,28=1/1;
 7//1,2,3,16;
 1/14=-1,18=20,19=15,26=3/3(2);
 2/9=110/2;
 99//99;
 2/9=110/2;
 3/5=1,6=6,7=101,11=2,16=1,25=1,30=1,71=1,74=-5/1,2,3;
 4/5=5,16=3,69=1/1;
 5/5=2,38=5/2;
 7//1,2,3,16;
 1/14=-1,18=20,19=15,26=3/3(-5);
 2/9=110/2;
 6/7=2,8=2,9=2,10=2,19=2,28=1/1;
 99/9=1/99;
 ------
 MAC_GO
 ------
 Symbolic Z-matrix:
 Charge =  0 Multiplicity = 1
 C                     3.17851  -1.39877   0.91235 
 C                     3.12464  -0.22026   0.28658 
 H                     4.09926  -1.75299   1.36701 
 H                     2.32531  -2.07021   0.97614 
 H                     4.01045   0.40173   0.18994 
 O                     2.07517   1.14295  -1.34474 
 C                     1.93776   0.34346  -0.42374 
 O                    -2.51239   1.47659   0.22442 
 N                     0.70672  -0.10025  -0.00646 
 S                    -1.93743  -1.94859   0.19371 
 C                    -0.51415   0.37761  -0.61038 
 H                    -2.87725  -1.15022   0.74254 
 H                     0.62953  -0.64331   0.84211 
 C                    -1.40975  -0.76237  -1.1166 
 H                    -0.1902    0.97778  -1.47263 
 O                    -0.52783   2.02722   1.13564 
 C                    -1.30989   1.33153   0.28641 
 H                    -1.12305   2.63237   1.61794 
 H                    -0.84857  -1.35884  -1.83949 
 H                    -2.29601  -0.35836  -1.60796 
 

 GradGradGradGradGradGradGradGradGradGradGradGradGradGradGradGradGradGrad
 Berny optimization.
 Initialization pass.
                           ----------------------------
                           !    Initial Parameters    !
                           ! (Angstroms and Degrees)  !
 --------------------------                            --------------------------
 ! Name  Definition              Value          Derivative Info.                !
 --------------------------------------------------------------------------------
 ! R1    R(1,2)                  1.3354         estimate D2E/DX2                !
 ! R2    R(1,3)                  1.0863         estimate D2E/DX2                !
 ! R3    R(1,4)                  1.0876         estimate D2E/DX2                !
 ! R4    R(2,5)                  1.0867         estimate D2E/DX2                !
 ! R5    R(2,7)                  1.4937         estimate D2E/DX2                !
 ! R6    R(6,7)                  1.2273         estimate D2E/DX2                !
 ! R7    R(7,9)                  1.3735         estimate D2E/DX2                !
 ! R8    R(8,17)                 1.2128         estimate D2E/DX2                !
 ! R9    R(9,11)                 1.4435         estimate D2E/DX2                !
 ! R10   R(9,13)                 1.0104         estimate D2E/DX2                !
 ! R11   R(10,12)                1.3498         estimate D2E/DX2                !
 ! R12   R(10,14)                1.8446         estimate D2E/DX2                !
 ! R13   R(11,14)                1.5355         estimate D2E/DX2                !
 ! R14   R(11,15)                1.0994         estimate D2E/DX2                !
 ! R15   R(11,17)                1.5321         estimate D2E/DX2                !
 ! R16   R(14,19)                1.0924         estimate D2E/DX2                !
 ! R17   R(14,20)                1.0909         estimate D2E/DX2                !
 ! R18   R(16,17)                1.3479         estimate D2E/DX2                !
 ! R19   R(16,18)                0.9763         estimate D2E/DX2                !
 ! A1    A(2,1,3)              121.2047         estimate D2E/DX2                !
 ! A2    A(2,1,4)              122.7286         estimate D2E/DX2                !
 ! A3    A(3,1,4)              116.0457         estimate D2E/DX2                !
 ! A4    A(1,2,5)              120.9251         estimate D2E/DX2                !
 ! A5    A(1,2,7)              126.012          estimate D2E/DX2                !
 ! A6    A(5,2,7)              112.9179         estimate D2E/DX2                !
 ! A7    A(2,7,6)              120.9141         estimate D2E/DX2                !
 ! A8    A(2,7,9)              116.4741         estimate D2E/DX2                !
 ! A9    A(6,7,9)              122.6005         estimate D2E/DX2                !
 ! A10   A(7,9,11)             121.6015         estimate D2E/DX2                !
 ! A11   A(7,9,13)             119.8183         estimate D2E/DX2                !
 ! A12   A(11,9,13)            117.6898         estimate D2E/DX2                !
 ! A13   A(12,10,14)            96.1797         estimate D2E/DX2                !
 ! A14   A(9,11,14)            112.6723         estimate D2E/DX2                !
 ! A15   A(9,11,15)            105.0491         estimate D2E/DX2                !
 ! A16   A(9,11,17)            113.6097         estimate D2E/DX2                !
 ! A17   A(14,11,15)           108.578          estimate D2E/DX2                !
 ! A18   A(14,11,17)           110.6258         estimate D2E/DX2                !
 ! A19   A(15,11,17)           105.7961         estimate D2E/DX2                !
 ! A20   A(10,14,11)           114.2105         estimate D2E/DX2                !
 ! A21   A(10,14,19)           105.4204         estimate D2E/DX2                !
 ! A22   A(10,14,20)           109.0084         estimate D2E/DX2                !
 ! A23   A(11,14,19)           108.8995         estimate D2E/DX2                !
 ! A24   A(11,14,20)           110.3265         estimate D2E/DX2                !
 ! A25   A(19,14,20)           108.7538         estimate D2E/DX2                !
 ! A26   A(17,16,18)           106.1068         estimate D2E/DX2                !
 ! A27   A(8,17,11)            124.0223         estimate D2E/DX2                !
 ! A28   A(8,17,16)            123.076          estimate D2E/DX2                !
 ! A29   A(11,17,16)           112.879          estimate D2E/DX2                !
 ! D1    D(3,1,2,5)              1.8915         estimate D2E/DX2                !
 ! D2    D(3,1,2,7)            177.1953         estimate D2E/DX2                !
 ! D3    D(4,1,2,5)           -176.3735         estimate D2E/DX2                !
 ! D4    D(4,1,2,7)             -1.0697         estimate D2E/DX2                !
 ! D5    D(1,2,7,6)           -153.2893         estimate D2E/DX2                !
 ! D6    D(1,2,7,9)             25.5225         estimate D2E/DX2                !
 ! D7    D(5,2,7,6)             22.3375         estimate D2E/DX2                !
 ! D8    D(5,2,7,9)           -158.8507         estimate D2E/DX2                !
 ! D9    D(2,7,9,11)           179.6198         estimate D2E/DX2                !
 ! D10   D(2,7,9,13)            10.6714         estimate D2E/DX2                !
 ! D11   D(6,7,9,11)            -1.5902         estimate D2E/DX2                !
 ! D12   D(6,7,9,13)          -170.5386         estimate D2E/DX2                !
 ! D13   D(7,9,11,14)          125.8658         estimate D2E/DX2                !
 ! D14   D(7,9,11,15)            7.8409         estimate D2E/DX2                !
 ! D15   D(7,9,11,17)         -107.3194         estimate D2E/DX2                !
 ! D16   D(13,9,11,14)         -64.96           estimate D2E/DX2                !
 ! D17   D(13,9,11,15)         177.0151         estimate D2E/DX2                !
 ! D18   D(13,9,11,17)          61.8548         estimate D2E/DX2                !
 ! D19   D(12,10,14,11)         76.5307         estimate D2E/DX2                !
 ! D20   D(12,10,14,19)       -163.9687         estimate D2E/DX2                !
 ! D21   D(12,10,14,20)        -47.3684         estimate D2E/DX2                !
 ! D22   D(9,11,14,10)          59.5721         estimate D2E/DX2                !
 ! D23   D(9,11,14,19)         -57.9504         estimate D2E/DX2                !
 ! D24   D(9,11,14,20)        -177.2395         estimate D2E/DX2                !
 ! D25   D(15,11,14,10)        175.5017         estimate D2E/DX2                !
 ! D26   D(15,11,14,19)         57.9792         estimate D2E/DX2                !
 ! D27   D(15,11,14,20)        -61.3098         estimate D2E/DX2                !
 ! D28   D(17,11,14,10)        -68.8176         estimate D2E/DX2                !
 ! D29   D(17,11,14,19)        173.6599         estimate D2E/DX2                !
 ! D30   D(17,11,14,20)         54.3709         estimate D2E/DX2                !
 ! D31   D(9,11,17,8)         -152.8056         estimate D2E/DX2                !
 ! D32   D(9,11,17,16)          28.8844         estimate D2E/DX2                !
 ! D33   D(14,11,17,8)         -24.9263         estimate D2E/DX2                !
 ! D34   D(14,11,17,16)        156.7637         estimate D2E/DX2                !
 ! D35   D(15,11,17,8)          92.4772         estimate D2E/DX2                !
 ! D36   D(15,11,17,16)        -85.8327         estimate D2E/DX2                !
 ! D37   D(18,16,17,8)          -1.4027         estimate D2E/DX2                !
 ! D38   D(18,16,17,11)        176.9257         estimate D2E/DX2                !
 --------------------------------------------------------------------------------
 Trust Radius=3.00D-01 FncErr=1.00D-07 GrdErr=1.00D-06
 Number of steps in this run=     96 maximum allowed number of steps=    120.
 GradGradGradGradGradGradGradGradGradGradGradGradGradGradGradGradGradGrad

                          Input orientation:                          
 ---------------------------------------------------------------------
 Center     Atomic      Atomic             Coordinates (Angstroms)
 Number     Number       Type             X           Y           Z
 ---------------------------------------------------------------------
      1          6           0        3.178512   -1.398772    0.912347
      2          6           0        3.124642   -0.220260    0.286583
      3          1           0        4.099264   -1.752994    1.367012
      4          1           0        2.325310   -2.070214    0.976135
      5          1           0        4.010446    0.401734    0.189939
      6          8           0        2.075165    1.142949   -1.344742
      7          6           0        1.937758    0.343461   -0.423741
      8          8           0       -2.512388    1.476592    0.224419
      9          7           0        0.706721   -0.100254   -0.006455
     10         16           0       -1.937428   -1.948591    0.193711
     11          6           0       -0.514150    0.377607   -0.610384
     12          1           0       -2.877247   -1.150222    0.742538
     13          1           0        0.629532   -0.643310    0.842114
     14          6           0       -1.409747   -0.762369   -1.116599
     15          1           0       -0.190204    0.977780   -1.472626
     16          8           0       -0.527826    2.027224    1.135642
     17          6           0       -1.309893    1.331529    0.286405
     18          1           0       -1.123053    2.632367    1.617939
     19          1           0       -0.848574   -1.358843   -1.839486
     20          1           0       -2.296011   -0.358355   -1.607961
 ---------------------------------------------------------------------
                    Distance matrix (angstroms):
                    1          2          3          4          5
     1  C    0.000000
     2  C    1.335430   0.000000
     3  H    1.086268   2.113407   0.000000
     4  H    1.087592   2.129963   1.843997   0.000000
     5  H    2.110879   1.086676   2.456877   3.093269   0.000000
     6  O    3.573817   2.370857   4.453883   3.971581   2.578751
     7  C    2.521900   1.493665   3.503431   2.817033   2.162414
     8  O    6.413057   5.887213   7.446455   6.045513   6.610890
     9  N    2.939404   2.438568   4.015882   2.732408   3.347411
    10  S    5.195342   5.349795   6.152767   4.335656   6.395408
    11  C    4.371497   3.795102   5.452811   4.070799   4.594896
    12  H    6.063236   6.090599   7.030292   5.288436   7.081966
    13  H    2.659503   2.590977   3.680483   2.220288   3.598337
    14  C    5.057050   4.777393   6.123632   4.476678   5.695671
    15  H    4.762808   3.939330   5.824106   4.649141   4.554274
    16  O    5.052153   4.371797   5.979427   4.995481   4.912483
    17  C    5.290759   4.698207   6.319887   5.026160   5.401836
    18  H    5.937289   5.287050   6.823998   5.866633   5.776480
    19  H    4.877663   4.647901   5.909153   4.302012   5.552321
    20  H    6.115948   5.743853   7.189925   5.564586   6.601635
                    6          7          8          9         10
     6  O    0.000000
     7  C    1.227316   0.000000
     8  O    4.859962   4.637661   0.000000
     9  N    2.282368   1.373486   3.591992   0.000000
    10  S    5.293898   4.544427   3.473241   3.232327   0.000000
    11  C    2.798139   2.459239   2.428501   1.443471   2.843147
    12  H    5.843095   5.174511   2.702170   3.808970   1.349764
    13  H    3.172210   2.070643   3.840207   1.010414   2.951858
    14  C    3.978303   3.592868   2.833212   2.479970   1.844582
    15  H    2.274980   2.455757   2.919129   2.028864   3.793826
    16  O    3.702676   3.368358   2.252112   2.711947   4.322189
    17  C    3.762289   3.468115   1.212798   2.490482   3.340895
    18  H    4.606999   4.333141   2.282097   3.667962   4.865882
    19  H    3.879689   3.558907   3.881710   2.713483   2.380608
    20  H    4.629296   4.451935   2.602204   3.412893   2.429703
                   11         12         13         14         15
    11  C    0.000000
    12  H    3.122321   0.000000
    13  H    2.111878   3.544626   0.000000
    14  C    1.535543   2.400078   2.830087   0.000000
    15  H    1.099368   4.081120   2.942435   2.154567   0.000000
    16  O    2.402089   3.971205   2.925301   3.692181   2.831675
    17  C    1.532124   2.970479   2.823149   2.522459   2.114954
    18  H    3.228022   4.260458   3.795197   4.368538   3.627597
    19  H    2.153553   3.290271   3.144481   1.092365   2.455167
    20  H    2.170675   2.547496   3.826600   1.090930   2.497598
                   16         17         18         19         20
    16  O    0.000000
    17  C    1.347896   0.000000
    18  H    0.976270   1.870848   0.000000
    19  H    4.518818   3.459816   5.287616   0.000000
    20  H    4.042873   2.723373   4.552656   1.774726   0.000000
 Stoichiometry    C6H9NO3S
 Framework group  C1[X(C6H9NO3S)]
 Deg. of freedom    54
 Full point group                 C1      NOp   1
 Largest Abelian subgroup         C1      NOp   1
 Largest concise Abelian subgroup C1      NOp   1
                         Standard orientation:                         
 ---------------------------------------------------------------------
 Center     Atomic      Atomic             Coordinates (Angstroms)
 Number     Number       Type             X           Y           Z
 ---------------------------------------------------------------------
      1          6           0        3.178512    1.398772   -0.912347
      2          6           0        3.124642    0.220260   -0.286583
      3          1           0        4.099264    1.752994   -1.367012
      4          1           0        2.325310    2.070214   -0.976135
      5          1           0        4.010446   -0.401734   -0.189939
      6          8           0        2.075165   -1.142949    1.344742
      7          6           0        1.937758   -0.343461    0.423741
      8          8           0       -2.512388   -1.476592   -0.224419
      9          7           0        0.706721    0.100254    0.006455
     10         16           0       -1.937428    1.948591   -0.193711
     11          6           0       -0.514150   -0.377607    0.610384
     12          1           0       -2.877247    1.150222   -0.742538
     13          1           0        0.629532    0.643310   -0.842114
     14          6           0       -1.409747    0.762369    1.116599
     15          1           0       -0.190204   -0.977780    1.472626
     16          8           0       -0.527826   -2.027224   -1.135642
     17          6           0       -1.309893   -1.331529   -0.286405
     18          1           0       -1.123053   -2.632367   -1.617939
     19          1           0       -0.848574    1.358843    1.839486
     20          1           0       -2.296011    0.358355    1.607961
 ---------------------------------------------------------------------
 Rotational constants (GHZ):      1.2108333      0.6419441      0.5029396
 Standard basis: 6-31G(d,p) (6D, 7F)
 There are   214 symmetry adapted cartesian basis functions of A   symmetry.
 There are   214 symmetry adapted basis functions of A   symmetry.
   214 basis functions,   395 primitive gaussians,   214 cartesian basis functions
    46 alpha electrons       46 beta electrons
       nuclear repulsion energy       707.5368295791 Hartrees.
 NAtoms=   20 NActive=   20 NUniq=   20 SFac= 1.00D+00 NAtFMM=   60 NAOKFM=F Big=F
 Integral buffers will be    262144 words long.
 Raffenetti 2 integral format.
 Two-electron integral symmetry is turned on.
 One-electron integrals computed using PRISM.
 NBasis=   214 RedAO= T EigKep=  2.18D-03  NBF=   214
 NBsUse=   214 1.00D-06 EigRej= -1.00D+00 NBFU=   214
 ExpMin= 1.17D-01 ExpMax= 2.19D+04 ExpMxC= 3.30D+03 IAcc=1 IRadAn=         1 AccDes= 0.00D+00
 Harris functional with IExCor=  402 and IRadAn=       1 diagonalized for initial guess.
 HarFok:  IExCor=  402 AccDes= 0.00D+00 IRadAn=         1 IDoV= 1 UseB2=F ITyADJ=14
 ICtDFT=  3500011 ScaDFX=  1.000000  1.000000  1.000000  1.000000
 FoFCou: FMM=F IPFlag=           0 FMFlag=      100000 FMFlg1=           0
         NFxFlg=           0 DoJE=T BraDBF=F KetDBF=T FulRan=T
         wScrn=  0.000000 ICntrl=     500 IOpCl=  0 I1Cent=   200000004 NGrid=           0
         NMat0=    1 NMatS0=      1 NMatT0=    0 NMatD0=    1 NMtDS0=    0 NMtDT0=    0
 Petite list used in FoFCou.
 Requested convergence on RMS density matrix=1.00D-08 within 128 cycles.
 Requested convergence on MAX density matrix=1.00D-06.
 Requested convergence on             energy=1.00D-06.
 No special actions if energy rises.
 Integral accuracy reduced to 1.0D-05 until final iterations.
 EnCoef did     1 forward-backward iterations
 Initial convergence to 1.0D-05 achieved.  Increase integral accuracy.
 SCF Done:  E(RB3LYP) =  -912.686469513     A.U. after   15 cycles
            NFock= 15  Conv=0.78D-08     -V/T= 2.0066

 **********************************************************************

            Population analysis using the SCF density.

 **********************************************************************

 Orbital symmetries:
       Occupied  (A) (A) (A) (A) (A) (A) (A) (A) (A) (A) (A) (A)
                 (A) (A) (A) (A) (A) (A) (A) (A) (A) (A) (A) (A)
                 (A) (A) (A) (A) (A) (A) (A) (A) (A) (A) (A) (A)
                 (A) (A) (A) (A) (A) (A) (A) (A) (A) (A)
       Virtual   (A) (A) (A) (A) (A) (A) (A) (A) (A) (A) (A) (A)
                 (A) (A) (A) (A) (A) (A) (A) (A) (A) (A) (A) (A)
                 (A) (A) (A) (A) (A) (A) (A) (A) (A) (A) (A) (A)
                 (A) (A) (A) (A) (A) (A) (A) (A) (A) (A) (A) (A)
                 (A) (A) (A) (A) (A) (A) (A) (A) (A) (A) (A) (A)
                 (A) (A) (A) (A) (A) (A) (A) (A) (A) (A) (A) (A)
                 (A) (A) (A) (A) (A) (A) (A) (A) (A) (A) (A) (A)
                 (A) (A) (A) (A) (A) (A) (A) (A) (A) (A) (A) (A)
                 (A) (A) (A) (A) (A) (A) (A) (A) (A) (A) (A) (A)
                 (A) (A) (A) (A) (A) (A) (A) (A) (A) (A) (A) (A)
                 (A) (A) (A) (A) (A) (A) (A) (A) (A) (A) (A) (A)
                 (A) (A) (A) (A) (A) (A) (A) (A) (A) (A) (A) (A)
                 (A) (A) (A) (A) (A) (A) (A) (A) (A) (A) (A) (A)
                 (A) (A) (A) (A) (A) (A) (A) (A) (A) (A) (A) (A)
 The electronic state is 1-A.
 Alpha  occ. eigenvalues --  -88.88503 -19.21337 -19.15619 -19.12039 -14.36900
 Alpha  occ. eigenvalues --  -10.33653 -10.29635 -10.25547 -10.23420 -10.21140
 Alpha  occ. eigenvalues --  -10.20995  -7.94750  -5.91237  -5.90883  -5.90225
 Alpha  occ. eigenvalues --   -1.12246  -1.03924  -1.03137  -0.93700  -0.81743
 Alpha  occ. eigenvalues --   -0.78732  -0.73732  -0.66317  -0.64411  -0.59851
 Alpha  occ. eigenvalues --   -0.59090  -0.54528  -0.49922  -0.49213  -0.48406
 Alpha  occ. eigenvalues --   -0.46626  -0.45522  -0.43585  -0.42820  -0.41677
 Alpha  occ. eigenvalues --   -0.40678  -0.39892  -0.38525  -0.37685  -0.33971
 Alpha  occ. eigenvalues --   -0.33148  -0.30345  -0.28790  -0.26506  -0.25697
 Alpha  occ. eigenvalues --   -0.24951
 Alpha virt. eigenvalues --   -0.04110  -0.01025   0.02145   0.06152   0.06508
 Alpha virt. eigenvalues --    0.07558   0.08932   0.11364   0.11882   0.13299
 Alpha virt. eigenvalues --    0.15268   0.16906   0.17853   0.19740   0.22246
 Alpha virt. eigenvalues --    0.22790   0.28435   0.28904   0.31467   0.32355
 Alpha virt. eigenvalues --    0.34117   0.34394   0.36514   0.39191   0.40052
 Alpha virt. eigenvalues --    0.40653   0.49894   0.50921   0.51817   0.53345
 Alpha virt. eigenvalues --    0.54359   0.56659   0.56807   0.58080   0.60693
 Alpha virt. eigenvalues --    0.61877   0.63848   0.64694   0.66285   0.66631
 Alpha virt. eigenvalues --    0.67728   0.69350   0.71224   0.72358   0.74474
 Alpha virt. eigenvalues --    0.76009   0.79830   0.80818   0.81717   0.82094
 Alpha virt. eigenvalues --    0.84541   0.84678   0.85675   0.87391   0.87934
 Alpha virt. eigenvalues --    0.88737   0.90193   0.92400   0.93781   0.94877
 Alpha virt. eigenvalues --    0.96635   0.98075   1.00076   1.02176   1.04078
 Alpha virt. eigenvalues --    1.05528   1.08303   1.08652   1.12728   1.14628
 Alpha virt. eigenvalues --    1.16241   1.18846   1.23920   1.27505   1.30093
 Alpha virt. eigenvalues --    1.32997   1.36275   1.37964   1.40549   1.42393
 Alpha virt. eigenvalues --    1.47035   1.50277   1.53075   1.54616   1.55386
 Alpha virt. eigenvalues --    1.60821   1.61796   1.65992   1.68298   1.75093
 Alpha virt. eigenvalues --    1.76986   1.78436   1.80013   1.81300   1.82665
 Alpha virt. eigenvalues --    1.84279   1.86576   1.87712   1.90124   1.91584
 Alpha virt. eigenvalues --    1.92450   1.93461   1.96407   2.00680   2.04092
 Alpha virt. eigenvalues --    2.05189   2.07100   2.07408   2.08684   2.10541
 Alpha virt. eigenvalues --    2.11022   2.14626   2.17818   2.19705   2.22708
 Alpha virt. eigenvalues --    2.27943   2.28658   2.30617   2.33486   2.34333
 Alpha virt. eigenvalues --    2.39005   2.40336   2.43613   2.45873   2.49187
 Alpha virt. eigenvalues --    2.50912   2.53679   2.54444   2.57284   2.57691
 Alpha virt. eigenvalues --    2.60250   2.62049   2.64582   2.66905   2.67541
 Alpha virt. eigenvalues --    2.70702   2.73754   2.74436   2.77387   2.78933
 Alpha virt. eigenvalues --    2.80746   2.83919   2.90411   2.91142   2.95474
 Alpha virt. eigenvalues --    2.99903   3.06493   3.15202   3.16710   3.25173
 Alpha virt. eigenvalues --    3.26614   3.38028   3.40894   3.41417   3.43230
 Alpha virt. eigenvalues --    3.49865   3.69490   3.89930   3.97141   4.06507
 Alpha virt. eigenvalues --    4.11032   4.19142   4.25817   4.36342   4.40815
 Alpha virt. eigenvalues --    4.45573   4.62546   4.68609
          Condensed to atoms (all electrons):
               1          2          3          4          5          6
     1  C    4.979206   0.578824   0.371737   0.379560  -0.044470   0.003658
     2  C    0.578824   4.957882  -0.016586  -0.036329   0.370135  -0.065351
     3  H    0.371737  -0.016586   0.569018  -0.039735  -0.007631  -0.000089
     4  H    0.379560  -0.036329  -0.039735   0.582028   0.005236  -0.000039
     5  H   -0.044470   0.370135  -0.007631   0.005236   0.579592   0.001788
     6  O    0.003658  -0.065351  -0.000089  -0.000039   0.001788   8.093551
     7  C   -0.029716   0.393600   0.003081  -0.011820  -0.029656   0.557834
     8  O    0.000000   0.000001   0.000000   0.000000   0.000000  -0.000001
     9  N   -0.002030  -0.108359   0.000024   0.005241   0.004898  -0.103586
    10  S   -0.000202   0.000031  -0.000001   0.000547   0.000000  -0.000066
    11  C   -0.000102   0.005836   0.000003  -0.000127  -0.000121  -0.003866
    12  H    0.000001   0.000000   0.000000   0.000000   0.000000   0.000000
    13  H    0.003769  -0.001351  -0.000109   0.002633  -0.000028   0.002973
    14  C    0.000011  -0.000183   0.000000  -0.000015   0.000001   0.000141
    15  H   -0.000081   0.001385   0.000001  -0.000012  -0.000027   0.027283
    16  O    0.000004  -0.000037   0.000000  -0.000001   0.000001  -0.000186
    17  C    0.000006  -0.000064   0.000000   0.000003   0.000003  -0.000279
    18  H    0.000000  -0.000003   0.000000   0.000000   0.000000   0.000009
    19  H   -0.000001  -0.000024   0.000000   0.000018   0.000000   0.000107
    20  H    0.000000   0.000004   0.000000   0.000001   0.000000  -0.000008
               7          8          9         10         11         12
     1  C   -0.029716   0.000000  -0.002030  -0.000202  -0.000102   0.000001
     2  C    0.393600   0.000001  -0.108359   0.000031   0.005836   0.000000
     3  H    0.003081   0.000000   0.000024  -0.000001   0.000003   0.000000
     4  H   -0.011820   0.000000   0.005241   0.000547  -0.000127   0.000000
     5  H   -0.029656   0.000000   0.004898   0.000000  -0.000121   0.000000
     6  O    0.557834  -0.000001  -0.103586  -0.000066  -0.003866   0.000000
     7  C    4.331946   0.000001   0.236970   0.000356  -0.020747  -0.000012
     8  O    0.000001   8.068364   0.002050  -0.005297  -0.077960   0.005002
     9  N    0.236970   0.002050   7.087171  -0.005479   0.227547  -0.000168
    10  S    0.000356  -0.005297  -0.005479  15.677721  -0.059925   0.270723
    11  C   -0.020747  -0.077960   0.227547  -0.059925   5.137636  -0.004794
    12  H   -0.000012   0.005002  -0.000168   0.270723  -0.004794   0.654849
    13  H   -0.014097   0.000007   0.333174   0.012328  -0.035435  -0.000201
    14  C    0.002208   0.001240  -0.064003   0.257305   0.324080  -0.016247
    15  H   -0.000242  -0.000058  -0.047203   0.005032   0.363690  -0.000016
    16  O    0.004071  -0.083156  -0.000381  -0.000276  -0.097618  -0.000089
    17  C   -0.001346   0.546403  -0.038248  -0.003737   0.307872   0.004879
    18  H   -0.000088   0.008106  -0.000463   0.000034   0.011055   0.000014
    19  H    0.000633   0.000289   0.000353  -0.042533  -0.033384   0.003196
    20  H   -0.000025   0.007527   0.004324  -0.032893  -0.034138  -0.006522
              13         14         15         16         17         18
     1  C    0.003769   0.000011  -0.000081   0.000004   0.000006   0.000000
     2  C   -0.001351  -0.000183   0.001385  -0.000037  -0.000064  -0.000003
     3  H   -0.000109   0.000000   0.000001   0.000000   0.000000   0.000000
     4  H    0.002633  -0.000015  -0.000012  -0.000001   0.000003   0.000000
     5  H   -0.000028   0.000001  -0.000027   0.000001   0.000003   0.000000
     6  O    0.002973   0.000141   0.027283  -0.000186  -0.000279   0.000009
     7  C   -0.014097   0.002208  -0.000242   0.004071  -0.001346  -0.000088
     8  O    0.000007   0.001240  -0.000058  -0.083156   0.546403   0.008106
     9  N    0.333174  -0.064003  -0.047203  -0.000381  -0.038248  -0.000463
    10  S    0.012328   0.257305   0.005032  -0.000276  -0.003737   0.000034
    11  C   -0.035435   0.324080   0.363690  -0.097618   0.307872   0.011055
    12  H   -0.000201  -0.016247  -0.000016  -0.000089   0.004879   0.000014
    13  H    0.419301  -0.002317   0.004769   0.001675  -0.001625  -0.000072
    14  C   -0.002317   5.150464  -0.023049   0.002844  -0.050487  -0.000314
    15  H    0.004769  -0.023049   0.517278   0.000277  -0.028952  -0.000255
    16  O    0.001675   0.002844   0.000277   8.089438   0.283776   0.270397
    17  C   -0.001625  -0.050487  -0.028952   0.283776   4.399616  -0.012540
    18  H   -0.000072  -0.000314  -0.000255   0.270397  -0.012540   0.394686
    19  H    0.000010   0.379783  -0.003459  -0.000044   0.004799   0.000004
    20  H    0.000041   0.368308  -0.000897   0.000120  -0.002859  -0.000011
              19         20
     1  C   -0.000001   0.000000
     2  C   -0.000024   0.000004
     3  H    0.000000   0.000000
     4  H    0.000018   0.000001
     5  H    0.000000   0.000000
     6  O    0.000107  -0.000008
     7  C    0.000633  -0.000025
     8  O    0.000289   0.007527
     9  N    0.000353   0.004324
    10  S   -0.042533  -0.032893
    11  C   -0.033384  -0.034138
    12  H    0.003196  -0.006522
    13  H    0.000010   0.000041
    14  C    0.379783   0.368308
    15  H   -0.003459  -0.000897
    16  O   -0.000044   0.000120
    17  C    0.004799  -0.002859
    18  H    0.000004  -0.000011
    19  H    0.557037  -0.020688
    20  H   -0.020688   0.551181
 Mulliken charges:
               1
     1  C   -0.240173
     2  C   -0.079410
     3  H    0.120287
     4  H    0.112813
     5  H    0.120278
     6  O   -0.513872
     7  C    0.577045
     8  O   -0.472516
     9  N   -0.531833
    10  S   -0.073670
    11  C   -0.009503
    12  H    0.089387
    13  H    0.274555
    14  C   -0.329770
    15  H    0.184537
    16  O   -0.470815
    17  C    0.592779
    18  H    0.329439
    19  H    0.153905
    20  H    0.166537
 Sum of Mulliken charges =   0.00000
 Mulliken charges with hydrogens summed into heavy atoms:
               1
     1  C   -0.007073
     2  C    0.040868
     6  O   -0.513872
     7  C    0.577045
     8  O   -0.472516
     9  N   -0.257278
    10  S    0.015717
    11  C    0.175034
    14  C   -0.009328
    16  O   -0.141376
    17  C    0.592779
 Electronic spatial extent (au):  <R**2>=           2289.3274
 Charge=              0.0000 electrons
 Dipole moment (field-independent basis, Debye):
    X=              0.3021    Y=              0.5612    Z=             -2.3259  Tot=              2.4116
 Quadrupole moment (field-independent basis, Debye-Ang):
   XX=            -73.6969   YY=            -72.1690   ZZ=            -68.7993
   XY=              6.9229   XZ=             -4.7372   YZ=              4.3127
 Traceless Quadrupole moment (field-independent basis, Debye-Ang):
   XX=             -2.1418   YY=             -0.6139   ZZ=              2.7558
   XY=              6.9229   XZ=             -4.7372   YZ=              4.3127
 Octapole moment (field-independent basis, Debye-Ang**2):
  XXX=             30.4241  YYY=            -40.5489  ZZZ=             -7.0167  XYY=              2.4668
  XXY=             10.6176  XXZ=            -22.8945  XZZ=            -18.3767  YZZ=             -6.6719
  YYZ=            -17.1544  XYZ=             -1.3561
 Hexadecapole moment (field-independent basis, Debye-Ang**3):
 XXXX=          -1727.9496 YYYY=           -797.9309 ZZZZ=           -310.8925 XXXY=              8.2123
 XXXZ=            -28.9183 YYYX=             73.3236 YYYZ=             42.5765 ZZZX=             11.6522
 ZZZY=             30.3010 XXYY=           -467.2588 XXZZ=           -353.2436 YYZZ=           -164.2744
 XXYZ=             -6.4672 YYXZ=             10.5005 ZZXY=             27.5276
 N-N= 7.075368295791D+02 E-N=-3.563079420370D+03  KE= 9.067138090324D+02
 Calling FoFJK, ICntrl=      2127 FMM=F ISym2X=0 I1Cent= 0 IOpClX= 0 NMat=1 NMatS=1 NMatT=0.
 ***** Axes restored to original set *****
 -------------------------------------------------------------------
 Center     Atomic                   Forces (Hartrees/Bohr)
 Number     Number              X              Y              Z
 -------------------------------------------------------------------
      1        6           0.000054694   -0.000063092    0.000004967
      2        6           0.000298493   -0.000411152    0.000234196
      3        1          -0.000398042    0.000304389   -0.000242424
      4        1           0.000282401    0.000451494   -0.000146572
      5        1          -0.000302566   -0.000185220    0.000022807
      6        8          -0.000028436    0.000019823    0.000011219
      7        6          -0.000384244   -0.000161974    0.000050668
      8        8          -0.000064160   -0.000265592   -0.000163182
      9        7           0.000036183   -0.000462686    0.001100628
     10       16          -0.000601681    0.000526193    0.000277567
     11        6           0.000027836   -0.000314882   -0.000169605
     12        1           0.000624108   -0.000361957   -0.000357728
     13        1           0.000118048    0.000483684   -0.000869486
     14        6           0.000110786    0.000160878   -0.000714388
     15        1          -0.000094905    0.000160840    0.000080174
     16        8          -0.002462574    0.001748202    0.001199601
     17        6           0.000639949    0.000459664    0.000519506
     18        1           0.002065722   -0.002132086   -0.001700688
     19        1          -0.000270530    0.000192736    0.000427715
     20        1           0.000348920   -0.000149262    0.000435026
 -------------------------------------------------------------------
 Cartesian Forces:  Max     0.002462574 RMS     0.000702805

 GradGradGradGradGradGradGradGradGradGradGradGradGradGradGradGradGradGrad
 Berny optimization.
 FormGI is forming the generalized inverse of G from B-inverse, IUseBI=4.
 Internal  Forces:  Max     0.003422038 RMS     0.000452031
 Search for a local minimum.
 Step number   1 out of a maximum of   96
 All quantities printed in internal units (Hartrees-Bohrs-Radians)
 Mixed Optimization -- En-DIIS/RFO-DIIS
 Second derivative matrix not updated -- first step.
 ITU=  0
     Eigenvalues ---    0.00230   0.00296   0.00341   0.00846   0.00850
     Eigenvalues ---    0.01117   0.01458   0.01555   0.01982   0.02043
     Eigenvalues ---    0.02381   0.02943   0.02945   0.03946   0.04437
     Eigenvalues ---    0.05301   0.05665   0.06597   0.11581   0.13959
     Eigenvalues ---    0.15808   0.15977   0.16000   0.16000   0.16000
     Eigenvalues ---    0.16000   0.17996   0.19346   0.22008   0.22042
     Eigenvalues ---    0.22112   0.22897   0.24993   0.24996   0.25000
     Eigenvalues ---    0.25000   0.25656   0.28917   0.29228   0.33051
     Eigenvalues ---    0.33752   0.34541   0.34705   0.35092   0.35200
     Eigenvalues ---    0.35248   0.39113   0.45903   0.50313   0.52116
     Eigenvalues ---    0.55471   0.58241   0.92214   0.98647
 RFO step:  Lambda=-5.29156473D-05 EMin= 2.30000000D-03
 Linear search not attempted -- first point.
 Iteration  1 RMS(Cart)=  0.00968396 RMS(Int)=  0.00008878
 Iteration  2 RMS(Cart)=  0.00008464 RMS(Int)=  0.00000106
 Iteration  3 RMS(Cart)=  0.00000001 RMS(Int)=  0.00000106
 Variable       Old X    -DE/DX   Delta X   Delta X   Delta X     New X
                                 (Linear)    (Quad)   (Total)
    R1        2.52360  -0.00079   0.00000  -0.00135  -0.00135   2.52224
    R2        2.05275  -0.00054   0.00000  -0.00153  -0.00153   2.05122
    R3        2.05525  -0.00051   0.00000  -0.00145  -0.00145   2.05381
    R4        2.05352  -0.00036   0.00000  -0.00101  -0.00101   2.05251
    R5        2.82262  -0.00015   0.00000  -0.00044  -0.00044   2.82218
    R6        2.31929   0.00000   0.00000   0.00000   0.00000   2.31929
    R7        2.59551  -0.00043   0.00000  -0.00086  -0.00086   2.59465
    R8        2.29186   0.00004   0.00000   0.00004   0.00004   2.29190
    R9        2.72776  -0.00019   0.00000  -0.00049  -0.00049   2.72727
   R10        1.90941  -0.00100   0.00000  -0.00218  -0.00218   1.90723
   R11        2.55069  -0.00079   0.00000  -0.00308  -0.00308   2.54760
   R12        3.48575  -0.00017   0.00000  -0.00074  -0.00074   3.48501
   R13        2.90176  -0.00042   0.00000  -0.00146  -0.00146   2.90030
   R14        2.07750   0.00000   0.00000  -0.00001  -0.00001   2.07750
   R15        2.89530  -0.00030   0.00000  -0.00102  -0.00102   2.89427
   R16        2.06427  -0.00053   0.00000  -0.00153  -0.00153   2.06274
   R17        2.06156  -0.00053   0.00000  -0.00154  -0.00154   2.06002
   R18        2.54715  -0.00074   0.00000  -0.00134  -0.00134   2.54581
   R19        1.84488  -0.00342   0.00000  -0.00657  -0.00657   1.83832
    A1        2.11542  -0.00004   0.00000  -0.00025  -0.00025   2.11517
    A2        2.14202  -0.00020   0.00000  -0.00124  -0.00124   2.14078
    A3        2.02538   0.00024   0.00000   0.00151   0.00151   2.02689
    A4        2.11054   0.00010   0.00000   0.00049   0.00049   2.11103
    A5        2.19932  -0.00015   0.00000  -0.00066  -0.00066   2.19866
    A6        1.97079   0.00005   0.00000   0.00021   0.00021   1.97100
    A7        2.11035   0.00002   0.00000   0.00007   0.00007   2.11042
    A8        2.03286   0.00003   0.00000   0.00010   0.00010   2.03296
    A9        2.13978  -0.00004   0.00000  -0.00017  -0.00017   2.13961
   A10        2.12235  -0.00045   0.00000  -0.00195  -0.00196   2.12039
   A11        2.09122   0.00019   0.00000   0.00095   0.00095   2.09217
   A12        2.05407   0.00027   0.00000   0.00145   0.00145   2.05553
   A13        1.67865  -0.00030   0.00000  -0.00186  -0.00186   1.67679
   A14        1.96650   0.00015   0.00000   0.00080   0.00080   1.96730
   A15        1.83345  -0.00002   0.00000   0.00126   0.00126   1.83471
   A16        1.98286   0.00012   0.00000   0.00033   0.00033   1.98319
   A17        1.89504   0.00009   0.00000   0.00089   0.00089   1.89593
   A18        1.93079  -0.00031   0.00000  -0.00214  -0.00214   1.92865
   A19        1.84649  -0.00001   0.00000  -0.00101  -0.00101   1.84548
   A20        1.99335  -0.00021   0.00000  -0.00144  -0.00144   1.99191
   A21        1.83993   0.00004   0.00000   0.00091   0.00091   1.84085
   A22        1.90256  -0.00002   0.00000  -0.00204  -0.00205   1.90051
   A23        1.90066   0.00019   0.00000   0.00235   0.00235   1.90300
   A24        1.92556  -0.00005   0.00000  -0.00129  -0.00130   1.92426
   A25        1.89811   0.00006   0.00000   0.00182   0.00182   1.89993
   A26        1.85191  -0.00005   0.00000  -0.00028  -0.00028   1.85163
   A27        2.16460  -0.00044   0.00000  -0.00174  -0.00174   2.16285
   A28        2.14808   0.00025   0.00000   0.00103   0.00103   2.14911
   A29        1.97011   0.00019   0.00000   0.00078   0.00078   1.97089
    D1        0.03301   0.00002   0.00000   0.00050   0.00050   0.03351
    D2        3.09264   0.00003   0.00000   0.00108   0.00108   3.09372
    D3       -3.07830   0.00000   0.00000  -0.00009  -0.00009  -3.07838
    D4       -0.01867   0.00001   0.00000   0.00050   0.00050  -0.01817
    D5       -2.67540   0.00000   0.00000   0.00033   0.00033  -2.67507
    D6        0.44545   0.00000   0.00000   0.00038   0.00038   0.44583
    D7        0.38986   0.00001   0.00000   0.00089   0.00089   0.39075
    D8       -2.77247   0.00001   0.00000   0.00093   0.00093  -2.77153
    D9        3.13496   0.00005   0.00000   0.00266   0.00266   3.13761
   D10        0.18625   0.00000   0.00000  -0.00027  -0.00027   0.18598
   D11       -0.02775   0.00005   0.00000   0.00271   0.00271  -0.02505
   D12       -2.97646   0.00000   0.00000  -0.00021  -0.00021  -2.97667
   D13        2.19677   0.00011   0.00000   0.00047   0.00047   2.19724
   D14        0.13685  -0.00006   0.00000  -0.00180  -0.00180   0.13505
   D15       -1.87308  -0.00009   0.00000  -0.00152  -0.00152  -1.87459
   D16       -1.13377   0.00015   0.00000   0.00329   0.00329  -1.13048
   D17        3.08950  -0.00002   0.00000   0.00102   0.00102   3.09051
   D18        1.07957  -0.00005   0.00000   0.00130   0.00130   1.08087
   D19        1.33571  -0.00018   0.00000  -0.02715  -0.02715   1.30857
   D20       -2.86179  -0.00004   0.00000  -0.02445  -0.02445  -2.88625
   D21       -0.82673   0.00005   0.00000  -0.02284  -0.02285  -0.84958
   D22        1.03973   0.00008   0.00000   0.00887   0.00887   1.04860
   D23       -1.01143   0.00003   0.00000   0.00701   0.00701  -1.00442
   D24       -3.09341  -0.00014   0.00000   0.00411   0.00411  -3.08930
   D25        3.06308   0.00020   0.00000   0.01144   0.01144   3.07452
   D26        1.01193   0.00015   0.00000   0.00958   0.00958   1.02150
   D27       -1.07006  -0.00002   0.00000   0.00667   0.00668  -1.06338
   D28       -1.20109   0.00006   0.00000   0.00955   0.00955  -1.19154
   D29        3.03094   0.00001   0.00000   0.00769   0.00769   3.03863
   D30        0.94895  -0.00016   0.00000   0.00479   0.00479   0.95374
   D31       -2.66696   0.00005   0.00000   0.01368   0.01368  -2.65328
   D32        0.50413   0.00003   0.00000   0.01140   0.01140   0.51553
   D33       -0.43505   0.00008   0.00000   0.01324   0.01324  -0.42181
   D34        2.73604   0.00006   0.00000   0.01096   0.01096   2.74700
   D35        1.61403   0.00002   0.00000   0.01262   0.01262   1.62665
   D36       -1.49806   0.00000   0.00000   0.01034   0.01034  -1.48772
   D37       -0.02448  -0.00001   0.00000  -0.00114  -0.00114  -0.02562
   D38        3.08794   0.00000   0.00000   0.00107   0.00107   3.08900
         Item               Value     Threshold  Converged?
 Maximum Force            0.003422     0.000450     NO 
 RMS     Force            0.000452     0.000300     NO 
 Maximum Displacement     0.052838     0.001800     NO 
 RMS     Displacement     0.009659     0.001200     NO 
 Predicted change in Energy=-2.654654D-05
 GradGradGradGradGradGradGradGradGradGradGradGradGradGradGradGradGradGrad

                          Input orientation:                          
 ---------------------------------------------------------------------
 Center     Atomic      Atomic             Coordinates (Angstroms)
 Number     Number       Type             X           Y           Z
 ---------------------------------------------------------------------
      1          6           0        3.179468   -1.400819    0.908358
      2          6           0        3.124677   -0.220522    0.287587
      3          1           0        4.099695   -1.755155    1.362069
      4          1           0        2.326791   -2.072037    0.968365
      5          1           0        4.009142    0.402859    0.193659
      6          8           0        2.072970    1.147014   -1.338438
      7          6           0        1.937001    0.344147   -0.420166
      8          8           0       -2.516202    1.457988    0.229451
      9          7           0        0.707017   -0.102239   -0.004118
     10         16           0       -1.948314   -1.940622    0.193570
     11          6           0       -0.512747    0.375484   -0.609772
     12          1           0       -2.863006   -1.122261    0.751318
     13          1           0        0.629908   -0.647944    0.841382
     14          6           0       -1.407332   -0.763085   -1.118596
     15          1           0       -0.188748    0.978679   -1.469878
     16          8           0       -0.533082    2.031115    1.129904
     17          6           0       -1.311953    1.325931    0.286703
     18          1           0       -1.129867    2.629996    1.611070
     19          1           0       -0.845155   -1.364243   -1.835577
     20          1           0       -2.289433   -0.357227   -1.614101
 ---------------------------------------------------------------------
                    Distance matrix (angstroms):
                    1          2          3          4          5
     1  C    0.000000
     2  C    1.334714   0.000000
     3  H    1.085460   2.111935   0.000000
     4  H    1.086827   2.127955   1.843530   0.000000
     5  H    2.110073   1.086141   2.455689   3.091211   0.000000
     6  O    3.572658   2.370696   4.452295   3.968382   2.578730
     7  C    2.520636   1.493432   3.501525   2.813877   2.161942
     8  O    6.408927   5.885600   7.441586   6.038348   6.610195
     9  N    2.938017   2.438066   4.013585   2.729377   3.346381
    10  S    5.205426   5.357502   6.162645   4.346734   6.401811
    11  C    4.369488   3.793591   5.449990   4.067413   4.592790
    12  H    6.050930   6.072935   7.018032   5.280453   7.061402
    13  H    2.659241   2.590994   3.679191   2.218913   3.597631
    14  C    5.055095   4.776069   6.120886   4.473526   5.693823
    15  H    4.760557   3.937709   5.821041   4.645410   4.552055
    16  O    5.060660   4.377050   5.987684   5.004081   4.915238
    17  C    5.290981   4.698426   6.319449   5.025068   5.401367
    18  H    5.942360   5.289443   6.829338   5.871173   5.777421
    19  H    4.871151   4.644942   5.901634   4.292354   5.550193
    20  H    6.112346   5.740009   7.185593   5.560507   6.596800
                    6          7          8          9         10
     6  O    0.000000
     7  C    1.227316   0.000000
     8  O    4.859576   4.636126   0.000000
     9  N    2.281856   1.373032   3.588593   0.000000
    10  S    5.296344   4.548902   3.445916   3.235663   0.000000
    11  C    2.795021   2.457274   2.426920   1.443211   2.840873
    12  H    5.820700   5.153911   2.655241   3.788957   1.348132
    13  H    3.171107   2.069841   3.835026   1.009263   2.955995
    14  C    3.976092   3.591424   2.824888   2.479768   1.844189
    15  H    2.271779   2.454248   2.921386   2.029588   3.792815
    16  O    3.696735   3.368959   2.252122   2.715704   4.319062
    17  C    3.759096   3.466882   1.212820   2.490077   3.329264
    18  H    4.599674   4.330901   2.281315   3.667162   4.854865
    19  H    3.881882   3.558423   3.875788   2.712219   2.380465
    20  H    4.622693   4.447488   2.597136   3.411126   2.427175
                   11         12         13         14         15
    11  C    0.000000
    12  H    3.101536   0.000000
    13  H    2.111614   3.526123   0.000000
    14  C    1.534772   2.396784   2.829332   0.000000
    15  H    1.099364   4.061935   2.942453   2.154550   0.000000
    16  O    2.401665   3.938991   2.934817   3.691560   2.825784
    17  C    1.531583   2.935179   2.823947   2.519514   2.113706
    18  H    3.224252   4.221656   3.799226   4.363607   3.620055
    19  H    2.154007   3.289728   3.139269   1.091557   2.460465
    20  H    2.168446   2.551367   3.825764   1.090115   2.493656
                   16         17         18         19         20
    16  O    0.000000
    17  C    1.347187   0.000000
    18  H    0.972796   1.867536   0.000000
    19  H    4.518841   3.458180   5.283407   0.000000
    20  H    4.039617   2.720578   4.546408   1.774564   0.000000
 Stoichiometry    C6H9NO3S
 Framework group  C1[X(C6H9NO3S)]
 Deg. of freedom    54
 Full point group                 C1      NOp   1
 Largest Abelian subgroup         C1      NOp   1
 Largest concise Abelian subgroup C1      NOp   1
                         Standard orientation:                         
 ---------------------------------------------------------------------
 Center     Atomic      Atomic             Coordinates (Angstroms)
 Number     Number       Type             X           Y           Z
 ---------------------------------------------------------------------
      1          6           0        3.180259    1.403394   -0.909565
      2          6           0        3.126869    0.223406   -0.288085
      3          1           0        4.099988    1.758418   -1.363747
      4          1           0        2.326870    2.073694   -0.969721
      5          1           0        4.012006   -0.399003   -0.194046
      6          8           0        2.077045   -1.144264    1.339043
      7          6           0        1.939982   -0.342078    0.420340
      8          8           0       -2.512251   -1.460913   -0.227346
      9          7           0        0.709416    0.102789    0.004383
     10         16           0       -1.947874    1.938305   -0.193621
     11          6           0       -0.509678   -0.375842    0.610667
     12          1           0       -2.861878    1.118669   -0.750626
     13          1           0        0.631500    0.647919   -0.841415
     14          6           0       -1.405296    0.762099    1.119080
     15          1           0       -0.184808   -0.978195    1.471034
     16          8           0       -0.528796   -2.032512   -1.128032
     17          6           0       -1.308156   -1.327641   -0.285021
     18          1           0       -1.125098   -2.632294   -1.608675
     19          1           0       -0.843537    1.364259    1.835547
     20          1           0       -2.286835    0.355617    1.615077
 ---------------------------------------------------------------------
 Rotational constants (GHZ):      1.2172052      0.6411610      0.5029937
 Standard basis: 6-31G(d,p) (6D, 7F)
 There are   214 symmetry adapted cartesian basis functions of A   symmetry.
 There are   214 symmetry adapted basis functions of A   symmetry.
   214 basis functions,   395 primitive gaussians,   214 cartesian basis functions
    46 alpha electrons       46 beta electrons
       nuclear repulsion energy       707.9832258108 Hartrees.
 NAtoms=   20 NActive=   20 NUniq=   20 SFac= 1.00D+00 NAtFMM=   60 NAOKFM=F Big=F
 Integral buffers will be    262144 words long.
 Raffenetti 2 integral format.
 Two-electron integral symmetry is turned on.
 One-electron integrals computed using PRISM.
 NBasis=   214 RedAO= T EigKep=  2.18D-03  NBF=   214
 NBsUse=   214 1.00D-06 EigRej= -1.00D+00 NBFU=   214
 Initial guess from the checkpoint file:  "D:\backups\Depo1\ChemChem\3\MAC_sunum\MAC2.chk"
 B after Tr=     0.000000    0.000000    0.000000
         Rot=    1.000000    0.000095   -0.000271   -0.000526 Ang=   0.07 deg.
 ExpMin= 1.17D-01 ExpMax= 2.19D+04 ExpMxC= 3.30D+03 IAcc=1 IRadAn=         1 AccDes= 0.00D+00
 Harris functional with IExCor=  402 and IRadAn=       1 diagonalized for initial guess.
 HarFok:  IExCor=  402 AccDes= 0.00D+00 IRadAn=         1 IDoV= 1 UseB2=F ITyADJ=14
 ICtDFT=  3500011 ScaDFX=  1.000000  1.000000  1.000000  1.000000
 FoFCou: FMM=F IPFlag=           0 FMFlag=      100000 FMFlg1=           0
         NFxFlg=           0 DoJE=T BraDBF=F KetDBF=T FulRan=T
         wScrn=  0.000000 ICntrl=     500 IOpCl=  0 I1Cent=   200000004 NGrid=           0
         NMat0=    1 NMatS0=      1 NMatT0=    0 NMatD0=    1 NMtDS0=    0 NMtDT0=    0
 Petite list used in FoFCou.
 Requested convergence on RMS density matrix=1.00D-08 within 128 cycles.
 Requested convergence on MAX density matrix=1.00D-06.
 Requested convergence on             energy=1.00D-06.
 No special actions if energy rises.
 Integral accuracy reduced to 1.0D-05 until final iterations.
 Initial convergence to 1.0D-05 achieved.  Increase integral accuracy.
 SCF Done:  E(RB3LYP) =  -912.686488355     A.U. after   11 cycles
            NFock= 11  Conv=0.66D-08     -V/T= 2.0066
 Calling FoFJK, ICntrl=      2127 FMM=F ISym2X=0 I1Cent= 0 IOpClX= 0 NMat=1 NMatS=1 NMatT=0.
 ***** Axes restored to original set *****
 -------------------------------------------------------------------
 Center     Atomic                   Forces (Hartrees/Bohr)
 Number     Number              X              Y              Z
 -------------------------------------------------------------------
      1        6           0.000003891   -0.000181692    0.000105484
      2        6           0.000068690    0.000117901   -0.000045516
      3        1           0.000023626    0.000026941   -0.000015254
      4        1          -0.000037213    0.000028127   -0.000038614
      5        1          -0.000000528    0.000027225   -0.000008709
      6        8           0.000048246    0.000065108   -0.000061410
      7        6          -0.000045999   -0.000086179   -0.000020960
      8        8          -0.000257441    0.000281099    0.000063421
      9        7           0.000012402    0.000216962    0.000209152
     10       16           0.000153830   -0.000281256    0.000123251
     11        6          -0.000078923   -0.000201382   -0.000260381
     12        1          -0.000082729   -0.000013809   -0.000134009
     13        1          -0.000030914   -0.000090058   -0.000059296
     14        6          -0.000165349    0.000151675   -0.000071509
     15        1           0.000096890    0.000030714    0.000059324
     16        8          -0.000532466    0.000053283   -0.000207524
     17        6           0.000650960   -0.000102995    0.000258472
     18        1           0.000195843   -0.000007177    0.000042063
     19        1          -0.000003347   -0.000026328    0.000073121
     20        1          -0.000019472   -0.000008159   -0.000011105
 -------------------------------------------------------------------
 Cartesian Forces:  Max     0.000650960 RMS     0.000160637

 GradGradGradGradGradGradGradGradGradGradGradGradGradGradGradGradGradGrad
 Berny optimization.
 Using GEDIIS/GDIIS optimizer.
 FormGI is forming the generalized inverse of G from B-inverse, IUseBI=4.
 Internal  Forces:  Max     0.000380603 RMS     0.000118347
 Search for a local minimum.
 Step number   2 out of a maximum of   96
 All quantities printed in internal units (Hartrees-Bohrs-Radians)
 Mixed Optimization -- En-DIIS/RFO-DIIS
 Swapping is turned off.
 Update second derivatives using D2CorX and points    1    2
 DE= -1.88D-05 DEPred=-2.65D-05 R= 7.10D-01
 TightC=F SS=  1.41D+00  RLast= 5.90D-02 DXNew= 5.0454D-01 1.7704D-01
 Trust test= 7.10D-01 RLast= 5.90D-02 DXMaxT set to 3.00D-01
 ITU=  1  0
     Eigenvalues ---    0.00266   0.00317   0.00361   0.00849   0.00877
     Eigenvalues ---    0.01115   0.01458   0.01530   0.01982   0.02040
     Eigenvalues ---    0.02381   0.02942   0.02946   0.03977   0.04717
     Eigenvalues ---    0.05349   0.05616   0.06589   0.11567   0.13965
     Eigenvalues ---    0.15467   0.15817   0.15977   0.16000   0.16000
     Eigenvalues ---    0.16117   0.18053   0.19737   0.21668   0.22016
     Eigenvalues ---    0.22426   0.23004   0.24872   0.24996   0.25000
     Eigenvalues ---    0.25169   0.25998   0.29055   0.29655   0.33070
     Eigenvalues ---    0.33752   0.34163   0.34679   0.35008   0.35170
     Eigenvalues ---    0.35219   0.39115   0.44459   0.47415   0.50364
     Eigenvalues ---    0.55443   0.58435   0.92233   0.98793
 En-DIIS/RFO-DIIS IScMMF=        0 using points:     2    1
 RFO step:  Lambda=-3.47631246D-06.
 DidBck=T Rises=F RFO-DIIS coefs:    0.77871    0.22129
 Iteration  1 RMS(Cart)=  0.01005848 RMS(Int)=  0.00013704
 Iteration  2 RMS(Cart)=  0.00012738 RMS(Int)=  0.00000356
 Iteration  3 RMS(Cart)=  0.00000001 RMS(Int)=  0.00000356
 Variable       Old X    -DE/DX   Delta X   Delta X   Delta X     New X
                                 (Linear)    (Quad)   (Total)
    R1        2.52224   0.00014   0.00030  -0.00057  -0.00027   2.52197
    R2        2.05122   0.00001   0.00034  -0.00084  -0.00050   2.05072
    R3        2.05381   0.00001   0.00032  -0.00078  -0.00046   2.05334
    R4        2.05251   0.00001   0.00022  -0.00053  -0.00031   2.05220
    R5        2.82218   0.00004   0.00010  -0.00015  -0.00005   2.82213
    R6        2.31929   0.00009   0.00000   0.00008   0.00008   2.31937
    R7        2.59465   0.00007   0.00019  -0.00037  -0.00018   2.59448
    R8        2.29190   0.00028  -0.00001   0.00025   0.00024   2.29213
    R9        2.72727   0.00003   0.00011  -0.00022  -0.00011   2.72716
   R10        1.90723   0.00000   0.00048  -0.00122  -0.00073   1.90650
   R11        2.54760  -0.00001   0.00068  -0.00174  -0.00106   2.54654
   R12        3.48501   0.00016   0.00016   0.00013   0.00029   3.48530
   R13        2.90030   0.00021   0.00032  -0.00026   0.00006   2.90036
   R14        2.07750   0.00000   0.00000  -0.00001   0.00000   2.07749
   R15        2.89427   0.00020   0.00023  -0.00005   0.00018   2.89445
   R16        2.06274  -0.00004   0.00034  -0.00093  -0.00060   2.06215
   R17        2.06002   0.00002   0.00034  -0.00082  -0.00048   2.05954
   R18        2.54581  -0.00027   0.00030  -0.00114  -0.00084   2.54498
   R19        1.83832  -0.00010   0.00145  -0.00383  -0.00238   1.83594
    A1        2.11517  -0.00001   0.00006  -0.00019  -0.00013   2.11503
    A2        2.14078  -0.00006   0.00027  -0.00097  -0.00069   2.14009
    A3        2.02689   0.00006  -0.00033   0.00115   0.00082   2.02771
    A4        2.11103   0.00005  -0.00011   0.00047   0.00036   2.11138
    A5        2.19866  -0.00005   0.00015  -0.00055  -0.00041   2.19825
    A6        1.97100   0.00000  -0.00005   0.00010   0.00006   1.97106
    A7        2.11042  -0.00005  -0.00002  -0.00011  -0.00013   2.11029
    A8        2.03296   0.00001  -0.00002   0.00008   0.00006   2.03302
    A9        2.13961   0.00004   0.00004   0.00004   0.00008   2.13969
   A10        2.12039   0.00001   0.00043  -0.00096  -0.00053   2.11986
   A11        2.09217   0.00003  -0.00021   0.00085   0.00064   2.09281
   A12        2.05553  -0.00003  -0.00032   0.00082   0.00050   2.05603
   A13        1.67679  -0.00016   0.00041  -0.00183  -0.00141   1.67538
   A14        1.96730  -0.00011  -0.00018   0.00037   0.00019   1.96750
   A15        1.83471   0.00004  -0.00028  -0.00018  -0.00046   1.83425
   A16        1.98319  -0.00019  -0.00007  -0.00042  -0.00050   1.98270
   A17        1.89593  -0.00002  -0.00020   0.00068   0.00049   1.89642
   A18        1.92865   0.00038   0.00047   0.00084   0.00131   1.92996
   A19        1.84548  -0.00011   0.00022  -0.00141  -0.00119   1.84429
   A20        1.99191   0.00029   0.00032   0.00028   0.00060   1.99251
   A21        1.84085  -0.00017  -0.00020  -0.00128  -0.00148   1.83937
   A22        1.90051  -0.00006   0.00045  -0.00028   0.00017   1.90068
   A23        1.90300  -0.00015  -0.00052  -0.00010  -0.00062   1.90238
   A24        1.92426   0.00004   0.00029   0.00041   0.00069   1.92496
   A25        1.89993   0.00004  -0.00040   0.00095   0.00055   1.90048
   A26        1.85163   0.00032   0.00006   0.00138   0.00144   1.85307
   A27        2.16285   0.00025   0.00039  -0.00027   0.00010   2.16295
   A28        2.14911  -0.00027  -0.00023  -0.00036  -0.00060   2.14851
   A29        1.97089   0.00001  -0.00017   0.00036   0.00017   1.97106
    D1        0.03351   0.00000  -0.00011   0.00018   0.00007   0.03358
    D2        3.09372  -0.00001  -0.00024   0.00044   0.00020   3.09393
    D3       -3.07838   0.00001   0.00002   0.00017   0.00019  -3.07819
    D4       -0.01817   0.00001  -0.00011   0.00044   0.00033  -0.01784
    D5       -2.67507   0.00000  -0.00007   0.00063   0.00056  -2.67452
    D6        0.44583   0.00001  -0.00008   0.00104   0.00095   0.44678
    D7        0.39075   0.00000  -0.00020   0.00089   0.00070   0.39145
    D8       -2.77153   0.00001  -0.00021   0.00130   0.00109  -2.77044
    D9        3.13761   0.00003  -0.00059   0.00290   0.00232   3.13993
   D10        0.18598  -0.00003   0.00006  -0.00167  -0.00161   0.18438
   D11       -0.02505   0.00003  -0.00060   0.00332   0.00272  -0.02233
   D12       -2.97667  -0.00002   0.00005  -0.00125  -0.00121  -2.97788
   D13        2.19724  -0.00013  -0.00010  -0.00113  -0.00123   2.19601
   D14        0.13505  -0.00006   0.00040  -0.00203  -0.00163   0.13341
   D15       -1.87459   0.00014   0.00034  -0.00001   0.00032  -1.87427
   D16       -1.13048  -0.00007  -0.00073   0.00336   0.00263  -1.12784
   D17        3.09051   0.00000  -0.00022   0.00245   0.00223   3.09274
   D18        1.08087   0.00020  -0.00029   0.00447   0.00418   1.08506
   D19        1.30857   0.00023   0.00601   0.02776   0.03377   1.34234
   D20       -2.88625   0.00010   0.00541   0.02695   0.03236  -2.85389
   D21       -0.84958   0.00003   0.00506   0.02725   0.03231  -0.81727
   D22        1.04860  -0.00013  -0.00196  -0.00384  -0.00581   1.04279
   D23       -1.00442   0.00001  -0.00155  -0.00234  -0.00390  -1.00831
   D24       -3.08930   0.00003  -0.00091  -0.00370  -0.00461  -3.09391
   D25        3.07452  -0.00016  -0.00253  -0.00343  -0.00596   3.06857
   D26        1.02150  -0.00002  -0.00212  -0.00193  -0.00405   1.01746
   D27       -1.06338   0.00000  -0.00148  -0.00328  -0.00476  -1.06814
   D28       -1.19154  -0.00009  -0.00211  -0.00426  -0.00638  -1.19792
   D29        3.03863   0.00004  -0.00170  -0.00277  -0.00447   3.03416
   D30        0.95374   0.00006  -0.00106  -0.00412  -0.00518   0.94856
   D31       -2.65328  -0.00011  -0.00303   0.00138  -0.00165  -2.65493
   D32        0.51553   0.00002  -0.00252   0.01207   0.00954   0.52507
   D33       -0.42181  -0.00009  -0.00293   0.00224  -0.00069  -0.42250
   D34        2.74700   0.00004  -0.00242   0.01293   0.01051   2.75750
   D35        1.62665   0.00001  -0.00279   0.00268  -0.00012   1.62653
   D36       -1.48772   0.00014  -0.00229   0.01336   0.01108  -1.47665
   D37       -0.02562   0.00006   0.00025   0.00540   0.00565  -0.01997
   D38        3.08900  -0.00006  -0.00024  -0.00519  -0.00542   3.08358
         Item               Value     Threshold  Converged?
 Maximum Force            0.000381     0.000450     YES
 RMS     Force            0.000118     0.000300     YES
 Maximum Displacement     0.048270     0.001800     NO 
 RMS     Displacement     0.010081     0.001200     NO 
 Predicted change in Energy=-1.054321D-05
 GradGradGradGradGradGradGradGradGradGradGradGradGradGradGradGradGradGrad

                          Input orientation:                          
 ---------------------------------------------------------------------
 Center     Atomic      Atomic             Coordinates (Angstroms)
 Number     Number       Type             X           Y           Z
 ---------------------------------------------------------------------
      1          6           0        3.180378   -1.402320    0.906276
      2          6           0        3.125368   -0.221140    0.287513
      3          1           0        4.100779   -1.757480    1.358346
      4          1           0        2.327346   -2.072753    0.965567
      5          1           0        4.009619    0.402240    0.193465
      6          8           0        2.071770    1.148434   -1.335461
      7          6           0        1.936802    0.344654   -0.417785
      8          8           0       -2.514567    1.461983    0.233155
      9          7           0        0.707345   -0.101293   -0.000025
     10         16           0       -1.940462   -1.946422    0.196034
     11          6           0       -0.512582    0.375870   -0.605647
     12          1           0       -2.884906   -1.147804    0.730996
     13          1           0        0.630902   -0.648566    0.844059
     14          6           0       -1.407109   -0.762943   -1.114123
     15          1           0       -0.188369    0.979149   -1.465611
     16          8           0       -0.529723    2.042335    1.123490
     17          6           0       -1.310401    1.328038    0.290400
     18          1           0       -1.123812    2.644451    1.601402
     19          1           0       -0.845878   -1.361252   -1.833743
     20          1           0       -2.291668   -0.358120   -1.605519
 ---------------------------------------------------------------------
                    Distance matrix (angstroms):
                    1          2          3          4          5
     1  C    0.000000
     2  C    1.334571   0.000000
     3  H    1.085193   2.111504   0.000000
     4  H    1.086582   2.127221   1.843566   0.000000
     5  H    2.110018   1.085978   2.455534   3.090595   0.000000
     6  O    3.572219   2.370622   4.451720   3.966875   2.578698
     7  C    2.520226   1.493405   3.500916   2.812481   2.161831
     8  O    6.410127   5.885977   7.442701   6.039446   6.609814
     9  N    2.937677   2.438007   4.012920   2.728265   3.346042
    10  S    5.198412   5.352345   6.154937   4.338470   6.396849
    11  C    4.368732   3.793262   5.448995   4.065668   4.592339
    12  H    6.073151   6.097440   7.040246   5.298879   7.087034
    13  H    2.659294   2.591293   3.678890   2.218332   3.597666
    14  C    5.053301   4.775090   6.118745   4.470668   5.692836
    15  H    4.758750   3.936368   5.818991   4.642581   4.550655
    16  O    5.067315   4.379711   5.994606   5.012159   4.915332
    17  C    5.291621   4.698511   6.319952   5.025379   5.400844
    18  H    5.948580   5.290883   6.836112   5.879353   5.775977
    19  H    4.870332   4.644392   5.900496   4.290888   5.549354
    20  H    6.110871   5.739913   7.183737   5.557494   6.597022
                    6          7          8          9         10
     6  O    0.000000
     7  C    1.227358   0.000000
     8  O    4.857299   4.635389   0.000000
     9  N    2.281855   1.372937   3.588721   0.000000
    10  S    5.293545   4.545215   3.456617   3.233237   0.000000
    11  C    2.794344   2.456776   2.427174   1.443150   2.841579
    12  H    5.840512   5.176484   2.682533   3.812327   1.347572
    13  H    3.171059   2.069810   3.836873   1.008875   2.952334
    14  C    3.975544   3.590738   2.826998   2.479901   1.844343
    15  H    2.270204   2.452931   2.920639   2.029187   3.793396
    16  O    3.689616   3.367699   2.251469   2.718044   4.331344
    17  C    3.756962   3.465962   1.212945   2.489705   3.335862
    18  H    4.590749   4.328226   2.281344   3.668353   4.870123
    19  H    3.880654   3.557859   3.876499   2.713397   2.379187
    20  H    4.624091   4.447983   2.596763   3.411399   2.427270
                   11         12         13         14         15
    11  C    0.000000
    12  H    3.120275   0.000000
    13  H    2.111556   3.552875   0.000000
    14  C    1.534803   2.395092   2.828612   0.000000
    15  H    1.099362   4.076802   2.941978   2.154937   0.000000
    16  O    2.401524   3.984711   2.943821   3.694090   2.819634
    17  C    1.531679   2.966983   2.825271   2.520762   2.112878
    18  H    3.223528   4.270862   3.807434   4.366311   3.613150
    19  H    2.153346   3.283455   3.139972   1.091241   2.458722
    20  H    2.168785   2.536697   3.824421   1.089860   2.496342
                   16         17         18         19         20
    16  O    0.000000
    17  C    1.346743   0.000000
    18  H    0.971538   1.867213   0.000000
    19  H    4.519910   3.458330   5.284234   0.000000
    20  H    4.039074   2.720390   4.545730   1.774448   0.000000
 Stoichiometry    C6H9NO3S
 Framework group  C1[X(C6H9NO3S)]
 Deg. of freedom    54
 Full point group                 C1      NOp   1
 Largest Abelian subgroup         C1      NOp   1
 Largest concise Abelian subgroup C1      NOp   1
                         Standard orientation:                         
 ---------------------------------------------------------------------
 Center     Atomic      Atomic             Coordinates (Angstroms)
 Number     Number       Type             X           Y           Z
 ---------------------------------------------------------------------
      1          6           0        3.179747    1.404310   -0.906469
      2          6           0        3.125824    0.223424   -0.287051
      3          1           0        4.099709    1.759872   -1.359116
      4          1           0        2.326222    2.074115   -0.965758
      5          1           0        4.010551   -0.399287   -0.193042
      6          8           0        2.073868   -1.146019    1.337099
      7          6           0        1.937951   -0.342825    0.419051
      8          8           0       -2.512909   -1.463614   -0.229416
      9          7           0        0.708007    0.102039    0.001570
     10         16           0       -1.941172    1.945212   -0.194359
     11          6           0       -0.511331   -0.375652    0.607961
     12          1           0       -2.885282    1.145647   -0.728496
     13          1           0        0.630826    0.648807   -0.842774
     14          6           0       -1.406440    0.762806    1.116206
     15          1           0       -0.186334   -0.978244    1.468111
     16          8           0       -0.528034   -2.043054   -1.120278
     17          6           0       -1.308861   -1.328858   -0.287240
     18          1           0       -1.121903   -2.645841   -1.597617
     19          1           0       -0.845325    1.361893    1.835269
     20          1           0       -2.290508    0.357628    1.608190
 ---------------------------------------------------------------------
 Rotational constants (GHZ):      1.2133694      0.6425305      0.5025303
 Standard basis: 6-31G(d,p) (6D, 7F)
 There are   214 symmetry adapted cartesian basis functions of A   symmetry.
 There are   214 symmetry adapted basis functions of A   symmetry.
   214 basis functions,   395 primitive gaussians,   214 cartesian basis functions
    46 alpha electrons       46 beta electrons
       nuclear repulsion energy       707.8703159160 Hartrees.
 NAtoms=   20 NActive=   20 NUniq=   20 SFac= 1.00D+00 NAtFMM=   60 NAOKFM=F Big=F
 Integral buffers will be    262144 words long.
 Raffenetti 2 integral format.
 Two-electron integral symmetry is turned on.
 One-electron integrals computed using PRISM.
 NBasis=   214 RedAO= T EigKep=  2.18D-03  NBF=   214
 NBsUse=   214 1.00D-06 EigRej= -1.00D+00 NBFU=   214
 Initial guess from the checkpoint file:  "D:\backups\Depo1\ChemChem\3\MAC_sunum\MAC2.chk"
 B after Tr=     0.000000    0.000000    0.000000
         Rot=    1.000000    0.000256    0.000166    0.000362 Ang=   0.05 deg.
 ExpMin= 1.17D-01 ExpMax= 2.19D+04 ExpMxC= 3.30D+03 IAcc=1 IRadAn=         1 AccDes= 0.00D+00
 Harris functional with IExCor=  402 and IRadAn=       1 diagonalized for initial guess.
 HarFok:  IExCor=  402 AccDes= 0.00D+00 IRadAn=         1 IDoV= 1 UseB2=F ITyADJ=14
 ICtDFT=  3500011 ScaDFX=  1.000000  1.000000  1.000000  1.000000
 FoFCou: FMM=F IPFlag=           0 FMFlag=      100000 FMFlg1=           0
         NFxFlg=           0 DoJE=T BraDBF=F KetDBF=T FulRan=T
         wScrn=  0.000000 ICntrl=     500 IOpCl=  0 I1Cent=   200000004 NGrid=           0
         NMat0=    1 NMatS0=      1 NMatT0=    0 NMatD0=    1 NMtDS0=    0 NMtDT0=    0
 Petite list used in FoFCou.
 Requested convergence on RMS density matrix=1.00D-08 within 128 cycles.
 Requested convergence on MAX density matrix=1.00D-06.
 Requested convergence on             energy=1.00D-06.
 No special actions if energy rises.
 Integral accuracy reduced to 1.0D-05 until final iterations.
 Initial convergence to 1.0D-05 achieved.  Increase integral accuracy.
 SCF Done:  E(RB3LYP) =  -912.686486356     A.U. after   11 cycles
            NFock= 11  Conv=0.72D-08     -V/T= 2.0066
 Calling FoFJK, ICntrl=      2127 FMM=F ISym2X=0 I1Cent= 0 IOpClX= 0 NMat=1 NMatS=1 NMatT=0.
 ***** Axes restored to original set *****
 -------------------------------------------------------------------
 Center     Atomic                   Forces (Hartrees/Bohr)
 Number     Number              X              Y              Z
 -------------------------------------------------------------------
      1        6          -0.000004933   -0.000105061    0.000054861
      2        6          -0.000047519    0.000216545   -0.000093539
      3        1           0.000148598   -0.000079700    0.000067420
      4        1          -0.000119618   -0.000121132    0.000021387
      5        1           0.000096966    0.000081866   -0.000008501
      6        8           0.000029894    0.000004847   -0.000049739
      7        6           0.000076997   -0.000026929   -0.000019968
      8        8          -0.000195528   -0.000253021    0.000283141
      9        7           0.000058289    0.000277798   -0.000206378
     10       16          -0.000034804   -0.000124245   -0.000041380
     11        6          -0.000342730   -0.000258473    0.000188959
     12        1          -0.000101874    0.000130664    0.000284410
     13        1          -0.000054705   -0.000233357    0.000264316
     14        6           0.000310307   -0.000023091    0.000000948
     15        1           0.000046042    0.000031534    0.000038163
     16        8           0.000577959   -0.000886408   -0.000317519
     17        6           0.000157576    0.000681986   -0.000738512
     18        1          -0.000590331    0.000664530    0.000553639
     19        1           0.000099088    0.000008789   -0.000212754
     20        1          -0.000109676    0.000012859   -0.000068956
 -------------------------------------------------------------------
 Cartesian Forces:  Max     0.000886408 RMS     0.000272843

 GradGradGradGradGradGradGradGradGradGradGradGradGradGradGradGradGradGrad
 Berny optimization.
 Using GEDIIS/GDIIS optimizer.
 FormGI is forming the generalized inverse of G from B-inverse, IUseBI=4.
 Internal  Forces:  Max     0.001044423 RMS     0.000163233
 Search for a local minimum.
 Step number   3 out of a maximum of   96
 All quantities printed in internal units (Hartrees-Bohrs-Radians)
 Mixed Optimization -- En-DIIS/RFO-DIIS
 Swapping is turned off.
 Update second derivatives using D2CorX and points    1    2    3
 DE=  2.00D-06 DEPred=-1.05D-05 R=-1.90D-01
 Trust test=-1.90D-01 RLast= 6.27D-02 DXMaxT set to 1.50D-01
 ITU= -1  1  0
     Eigenvalues ---    0.00278   0.00317   0.00367   0.00846   0.01107
     Eigenvalues ---    0.01425   0.01460   0.01736   0.01983   0.02062
     Eigenvalues ---    0.02381   0.02943   0.02946   0.03965   0.04870
     Eigenvalues ---    0.05298   0.05619   0.06491   0.11586   0.13965
     Eigenvalues ---    0.15114   0.15825   0.15978   0.16000   0.16069
     Eigenvalues ---    0.16316   0.18085   0.19629   0.21764   0.22082
     Eigenvalues ---    0.22764   0.22966   0.24924   0.24998   0.25050
     Eigenvalues ---    0.25233   0.26081   0.29043   0.29711   0.33065
     Eigenvalues ---    0.33752   0.34289   0.34652   0.35082   0.35211
     Eigenvalues ---    0.35221   0.39192   0.44695   0.46972   0.50393
     Eigenvalues ---    0.55772   0.59061   0.92239   0.98843
 En-DIIS/RFO-DIIS IScMMF=        0 using points:     3    2    1
 RFO step:  Lambda=-5.03648410D-06.
 DidBck=T Rises=F RFO-DIIS coefs:    0.43369    0.49923    0.06708
 Iteration  1 RMS(Cart)=  0.00521669 RMS(Int)=  0.00002900
 Iteration  2 RMS(Cart)=  0.00002784 RMS(Int)=  0.00000402
 Iteration  3 RMS(Cart)=  0.00000000 RMS(Int)=  0.00000402
 Variable       Old X    -DE/DX   Delta X   Delta X   Delta X     New X
                                 (Linear)    (Quad)   (Total)
    R1        2.52197   0.00034   0.00024   0.00002   0.00026   2.52224
    R2        2.05072   0.00018   0.00039  -0.00020   0.00019   2.05091
    R3        2.05334   0.00017   0.00036  -0.00018   0.00018   2.05353
    R4        2.05220   0.00013   0.00024  -0.00010   0.00014   2.05234
    R5        2.82213   0.00008   0.00006   0.00006   0.00012   2.82225
    R6        2.31937   0.00004  -0.00004   0.00008   0.00004   2.31941
    R7        2.59448   0.00015   0.00016  -0.00002   0.00014   2.59461
    R8        2.29213   0.00015  -0.00014   0.00025   0.00011   2.29225
    R9        2.72716   0.00017   0.00010   0.00008   0.00017   2.72733
   R10        1.90650   0.00035   0.00056  -0.00028   0.00028   1.90678
   R11        2.54654   0.00026   0.00081  -0.00043   0.00037   2.54691
   R12        3.48530   0.00021  -0.00011   0.00059   0.00047   3.48578
   R13        2.90036  -0.00009   0.00006  -0.00006   0.00000   2.90036
   R14        2.07749   0.00000   0.00000   0.00000   0.00000   2.07750
   R15        2.89445   0.00002  -0.00003   0.00018   0.00015   2.89460
   R16        2.06215   0.00019   0.00044  -0.00026   0.00018   2.06233
   R17        2.05954   0.00013   0.00038  -0.00024   0.00014   2.05967
   R18        2.54498   0.00002   0.00056  -0.00065  -0.00009   2.54489
   R19        1.83594   0.00104   0.00179  -0.00110   0.00069   1.83663
    A1        2.11503   0.00001   0.00009  -0.00008   0.00001   2.11504
    A2        2.14009   0.00002   0.00047  -0.00050  -0.00002   2.14006
    A3        2.02771  -0.00003  -0.00057   0.00058   0.00001   2.02772
    A4        2.11138   0.00000  -0.00024   0.00028   0.00005   2.11143
    A5        2.19825   0.00002   0.00027  -0.00030  -0.00002   2.19823
    A6        1.97106  -0.00001  -0.00005   0.00001  -0.00003   1.97102
    A7        2.11029  -0.00004   0.00007  -0.00017  -0.00010   2.11020
    A8        2.03302   0.00002  -0.00004   0.00008   0.00004   2.03306
[...]
 0008315,0.00014695,-0.00019340,-0.00013719,-0.00024879,-0.00005574,0.0
 0009109,-0.00009340,0.00005937,-0.00014865,0.00002848,-0.00020600,0.00
 003061,-0.00021987,-0.00150668,-0.00074297,0.00164645,0.00433877,0.002
 52668,-0.00240632,0.84798717,0.00012847,-0.00002643,0.00003919,0.00029
 216,0.00010079,0.00003446,0.00006226,-0.00002661,0.00003563,-0.0000290
 9,0.00006932,-0.00006921,0.00019702,-0.00005546,0.00009086,0.00108009,
 0.00111174,-0.00058985,-0.00192382,-0.00243553,0.00110957,-0.07115910,
 0.07789741,0.00015598,-0.00000319,0.00005127,0.00036339,0.00039697,0.0
 0017418,0.00005679,-0.00004133,0.00002173,-0.00003429,0.00006989,-0.00
 009246,0.00024005,-0.00006702,0.00009111,0.00066249,0.00118965,-0.0011
 7067,-0.00227777,-0.00317884,0.00195013,0.04479054,0.03401626,0.068800
 46,-0.00449932,-0.00354346,0.00157639,-0.03983264,-0.00163194,0.001121
 37,0.00015240,0.00040026,-0.00058869,-0.00032909,0.00079353,-0.0002843
 3,-0.00330263,0.00152987,-0.00185263,-0.00818869,-0.03630229,0.0431290
 4,-0.28368814,-0.04277708,0.02620934,-0.00638159,0.00554590,0.00726419
 ,0.66496431,-0.00040998,-0.00202576,0.00131803,0.01055008,0.01337823,-
 0.00377867,0.00030857,0.00082807,0.00011508,0.00119652,0.00049436,-0.0
 0109421,0.00268952,-0.00087270,0.00197098,-0.04321230,-0.01795716,0.04
 020156,-0.04279565,-0.09172260,0.05333505,0.00491117,0.00037799,-0.002
 25988,0.03911604,0.33535456,-0.00085608,0.00013561,0.00030764,-0.01427
 050,-0.00342163,0.01153171,0.00046744,-0.00048315,-0.00111713,-0.00043
 948,0.00047245,0.00086300,-0.00382062,0.00182188,-0.00144588,0.0491342
 8,0.03814363,-0.02269845,0.04534938,0.05970959,-0.11161157,0.00555899,
 -0.00171756,-0.00288444,-0.02635357,-0.35179678,0.57023909,-0.00007299
 ,0.00002407,0.00004953,-0.00002035,0.00004150,-0.00010999,-0.00003224,
 0.00001426,-0.00000580,0.00005085,-0.00009794,-0.00003906,-0.00002245,
 -0.00000336,-0.00002027,-0.00124565,-0.00001039,0.00012848,0.00117211,
 -0.00065988,0.00083223,0.00117173,-0.00022878,0.00037987,-0.00095020,-
 0.00113276,0.00159367,0.17188861,-0.00009001,0.00000409,0.00001891,0.0
 0005636,-0.00003017,-0.00013937,-0.00000357,0.00003629,-0.00000013,0.0
 0000693,-0.00001564,-0.00002731,-0.00001408,-0.00000163,-0.00000973,-0
 .00125790,0.00024909,-0.00023290,0.00044606,-0.00056946,0.00099137,0.0
 0014136,-0.00137935,0.00061105,0.00114322,0.00142984,0.00029276,-0.090
 09316,0.22511527,-0.00004365,-0.00004445,0.00010507,-0.00000459,0.0000
 6727,-0.00002795,0.00001946,0.00001031,-0.00000860,-0.00002427,-0.0000
 3932,-0.00009620,0.00000776,-0.00000396,-0.00001061,-0.00014271,-0.000
 38040,0.00053313,0.00078696,0.00006575,-0.00025623,-0.00055366,-0.0004
 2480,0.00040563,-0.00183003,-0.00031943,0.00175600,-0.10184322,-0.0146
 0806,0.14654885,0.00095148,-0.00021324,-0.00027277,-0.00008035,-0.0039
 7705,0.00232236,0.00033906,0.00013031,-0.00001443,0.00012924,0.0007756
 0,-0.00018164,-0.00031349,0.00062452,-0.00013199,0.00022037,0.00679040
 ,-0.00940244,-0.04808388,0.00369369,-0.00416582,-0.03144317,0.02096646
 ,0.01558156,-0.17938954,0.03156446,-0.04733894,-0.00520310,-0.00961073
 ,0.00496529,0.51165818,-0.00088137,-0.00042241,-0.00021957,-0.00229315
 ,0.00403060,0.00322028,0.00017899,0.00006580,-0.00054379,-0.00005482,0
 .00040443,0.00026019,-0.00033657,0.00010032,0.00001773,-0.00141620,-0.
 00437003,0.00264382,0.00119361,0.00808284,-0.01439809,0.00640904,0.011
 83444,-0.00750250,0.03284848,-0.09613202,0.04371886,-0.01235058,-0.020
 00681,0.00579449,0.01845195,0.49240638,0.00053033,0.00008128,-0.000049
 07,0.00253646,0.00304590,0.00168585,0.00007404,-0.00024394,0.00011383,
 -0.00016445,0.00002495,-0.00026783,0.00101809,-0.00020800,0.00078949,0
 .00374826,0.00408194,-0.00640815,-0.00816463,-0.01426537,0.01479172,0.
 00293160,-0.00605619,0.01673621,-0.03586698,0.04159202,-0.11620597,0.0
 1213642,0.02084530,-0.00031831,-0.00872602,-0.04808480,0.52375060,0.00
 008546,0.00004949,-0.00004281,-0.00001529,-0.00000378,0.00001024,-0.00
 002854,-0.00002563,0.00000825,0.00003473,0.00000041,0.00004627,0.00000
 432,-0.00001135,0.00001496,0.00010679,-0.00006611,0.00008972,0.0000627
 3,0.00001364,-0.00007692,0.00044021,0.00081319,-0.00054062,-0.00027929
 ,-0.00089960,-0.00030251,-0.12630097,0.10108392,0.07521402,-0.00090760
 ,0.00134605,-0.00018887,0.13140798,-0.00002511,-0.00000295,-0.00000566
 ,-0.00000146,0.00003321,0.00002388,0.00000414,-0.00000077,-0.00000463,
 0.00000615,-0.00001616,0.00000459,-0.00000102,0.00000521,-0.00000496,0
 .00002582,-0.00003816,-0.00000493,0.00009394,0.00002114,0.00000873,0.0
 0195724,-0.00062974,-0.00048105,-0.00017738,-0.00059492,-0.00012386,0.
 11802431,-0.11628512,-0.06221274,-0.00043587,0.00127679,-0.00030793,-0
 .10467961,0.10924230,0.00010008,0.00006394,-0.00002847,-0.00001806,-0.
 00003943,-0.00000116,-0.00003006,-0.00002663,0.00001196,0.00003763,0.0
 0000024,0.00002348,0.00000436,-0.00001554,0.00001601,0.00004308,-0.000
 02964,0.00014905,-0.00002692,-0.00003687,-0.00011078,-0.00103617,-0.00
 046988,-0.00029217,-0.00017012,-0.00037289,-0.00026985,0.06407904,-0.0
 4244142,-0.04766367,-0.00118939,-0.00026928,0.00070949,-0.07888975,0.0
 5188230,0.06053553,-0.00137360,-0.00027370,-0.00013522,-0.00085813,-0.
 00012869,-0.00024091,0.00044920,0.00032307,-0.00029419,-0.00060603,0.0
 0189939,0.00004291,0.00026165,0.00005670,-0.00007661,-0.00764289,-0.00
 302244,0.00237304,0.01168529,-0.01579305,0.02581863,-0.00091649,-0.000
 04962,0.00056756,-0.07316521,-0.01537883,0.02293071,0.00042614,-0.0000
 3855,0.00123447,0.00645774,0.01656745,-0.02327598,-0.00023067,0.000091
 07,-0.00003685,0.06891335,0.00240811,0.00178671,-0.00058207,0.00041201
 ,-0.00225475,-0.00017235,-0.00040304,-0.00053639,0.00002433,0.00114868
 ,-0.00140517,0.00055563,0.00009282,-0.00019145,-0.00003993,-0.00096408
 ,0.00584648,0.00206059,-0.00403152,-0.01139500,0.00423475,-0.00161889,
 -0.00018425,-0.00050395,-0.01303477,-0.13657041,0.20139921,-0.00037705
 ,-0.00048553,-0.00024662,0.00015677,-0.00599008,0.00465682,0.00055362,
 0.00016353,0.00042470,0.01348743,0.15067393,-0.00065879,0.00058119,-0.
 00061784,-0.00012419,-0.00047545,-0.00008778,-0.00035024,-0.00015417,-
 0.00003876,-0.00025602,-0.00030130,0.00082746,-0.00029071,0.00010876,0
 .00001262,0.00026564,0.00171480,0.00465552,-0.00149242,-0.00106589,-0.
 00807269,-0.00013951,-0.00014251,-0.00052665,0.02467155,0.20964931,-0.
 31947670,-0.00007704,-0.00051287,-0.00065859,0.00257086,0.00246199,-0.
 00749830,0.00057235,0.00015949,0.00039428,-0.02391558,-0.21294828,0.33
 052174,-0.00008608,-0.00010951,0.00005386,-0.00067671,0.00074576,0.000
 82977,0.00004848,-0.00003672,-0.00013855,-0.00002596,0.00009570,0.0000
 0040,-0.00013126,0.00005272,-0.00002105,0.00107443,-0.00137874,0.00204
 391,0.00166838,0.00122863,-0.00693899,-0.00340900,0.00060812,0.0009754
 0,-0.03646253,-0.01956450,-0.01432389,-0.04272145,0.00670714,0.0074386
 6,-0.10489062,-0.03530270,-0.01639933,-0.00420412,-0.01123990,0.015658
 70,0.00081302,0.00034359,0.00030008,0.53820865,0.00056497,-0.00000052,
 0.00009026,0.00034170,-0.00061407,-0.00085898,-0.00003457,-0.00005834,
 0.00021798,0.00001983,0.00000002,-0.00007888,0.00023142,-0.00007236,0.
 00015367,0.00031483,0.00152381,-0.00134449,-0.00085933,-0.00278585,0.0
 0431749,-0.00323687,0.00067828,-0.00021857,0.00799090,0.01379714,0.002
 79677,-0.00945392,-0.08453630,0.04890045,-0.03953668,-0.13513165,-0.02
 913867,0.00468722,0.00940987,-0.01182580,0.00139595,0.00079358,0.00061
 691,-0.11289958,0.44894995,-0.00027517,-0.00018139,-0.00004296,-0.0003
 4925,0.00070662,0.00056952,0.00003996,0.00001432,-0.00012576,-0.000045
 42,0.00003451,0.00011144,-0.00010139,0.00005081,-0.00002927,0.00140908
 ,-0.00175314,0.00089274,0.00226979,0.00254537,-0.00380485,-0.00160188,
 0.00065761,-0.00273978,-0.01877995,-0.01009554,-0.00665024,0.02129523,
 0.02834029,-0.07338057,-0.02010355,-0.03212531,-0.08056477,0.00397487,
 0.00860484,-0.01189724,-0.00154242,-0.00105666,-0.00050519,0.01958761,
 0.06892323,0.44895673,0.00039123,0.00008234,0.00021849,-0.00014666,-0.
 00060643,0.00069123,0.00000063,-0.00023033,0.00001550,-0.00007592,-0.0
 0013894,0.00003896,-0.00001108,0.00001237,-0.00005965,-0.00041421,-0.0
 0256067,0.00388117,0.00187977,0.00540808,-0.00643783,0.00005480,0.0021
 6928,-0.00124836,0.00304590,0.01846091,-0.02827652,-0.00092186,-0.0022
 1885,-0.00056968,-0.06578000,-0.04464026,0.06726324,0.00016449,0.00025
 548,-0.00012770,-0.00517921,0.00107124,-0.00149407,-0.00595675,-0.0101
 4236,0.01173051,0.07876975,0.00017173,-0.00010334,0.00004755,-0.000135
 52,-0.00013558,0.00050228,0.00006504,-0.00004767,-0.00006079,0.0000074
 4,0.00009263,0.00005066,0.00000439,0.00004119,-0.00006137,-0.00147018,
 -0.00120411,-0.00125384,-0.00084058,0.00047838,0.00132699,0.00191604,-
 0.00327809,0.00141673,0.00030450,-0.00896240,0.01392747,-0.00227993,-0
 .00287178,-0.00037294,-0.03395000,-0.12055367,0.10169137,-0.00008802,-
 0.00020852,-0.00006145,0.00147644,-0.00045510,0.00051927,-0.00848387,-
 0.01426883,0.01732109,0.03859795,0.13597689,-0.00022341,0.00004151,-0.
 00006182,0.00013864,0.00047541,-0.00007456,-0.00003539,0.00001735,-0.0
 0000251,-0.00003122,-0.00008785,-0.00000158,-0.00001950,-0.00004142,0.
 00005597,0.00252698,-0.00167695,-0.00010083,0.00147494,0.00217525,-0.0
 0120317,-0.00064861,-0.00230504,0.00125910,-0.00251358,0.01233627,-0.0
 1654927,-0.00187153,-0.00306608,0.00140563,0.05544316,0.10825047,-0.20
 447615,0.00001645,-0.00006835,-0.00005101,-0.00219211,0.00018245,-0.00
 001375,-0.00237649,-0.00570005,0.00961553,-0.05972452,-0.11899309,0.22
 732237,-0.00006257,-0.00005358,0.00011851,0.00015267,0.00011154,0.0000
 2968,0.00001330,0.00000433,-0.00002117,0.00000242,-0.00001728,-0.00004
 882,0.00009705,-0.00004131,-0.00003970,0.00010245,0.00071612,0.0001135
 9,0.00044115,-0.00068796,0.00038140,-0.07292069,-0.04113194,-0.0542013
 7,0.00178070,0.00265553,0.00321963,0.00030071,-0.00000973,0.00002410,0
 .00926768,0.00971116,0.00613885,0.00016278,0.00094964,-0.00054233,0.00
 008187,-0.00119960,-0.00033909,-0.00253017,0.00161511,0.00202486,-0.00
 012223,-0.00080978,0.00015219,0.45210518,0.00017661,-0.00006405,0.0001
 1898,0.00010761,-0.00005916,0.00003137,0.00006778,-0.00002607,0.000042
 75,-0.00000381,0.00008402,-0.00009445,0.00023691,-0.00006634,0.0000118
 9,0.00141559,0.00215104,-0.00073129,-0.00321580,-0.00288736,0.00153937
 ,-0.02906196,0.02383398,-0.01018005,0.00227333,-0.00086864,-0.00221757
 ,-0.00019075,0.00001327,0.00018418,-0.01366867,-0.01195313,-0.02448438
 ,0.00010037,0.00025078,0.00013314,0.00014302,-0.00019251,-0.00017505,0
 .00422255,-0.00106886,-0.00331509,-0.00010609,-0.00282486,-0.00117859,
 -0.09606045,0.34108783,0.00018467,-0.00007156,0.00025054,0.00019480,0.
 00011465,0.00020625,0.00008189,-0.00005841,0.00001521,-0.00002029,0.00
 002330,-0.00016407,0.00023761,-0.00005834,0.00000525,0.00133466,0.0008
 6724,-0.00032600,-0.00242052,-0.00205205,0.00062356,-0.04365293,-0.011
 28733,0.01130361,0.00373997,-0.00018922,-0.00039316,-0.00001334,-0.000
 07440,0.00069386,-0.01634014,-0.02230048,-0.01577313,0.00001692,0.0005
 6720,-0.00036304,0.00050781,-0.00132828,-0.00083318,0.00507441,-0.0006
 8454,-0.00274705,-0.00100961,-0.00049156,0.00087223,-0.02865670,0.2747
 7493,0.30070894,0.00051192,0.00000851,-0.00007083,-0.00065271,-0.00100
 150,-0.00001777,0.00001509,-0.00009169,0.00009747,0.00000900,0.0000993
 4,0.00007213,-0.00011112,0.00007366,-0.00005296,0.00249923,-0.00140531
 ,0.00010100,-0.00281619,0.00581560,-0.00063352,-0.73350761,0.07825714,
 -0.01724715,-0.03088343,0.01447774,0.00751065,-0.00091131,-0.00095261,
 0.00088638,-0.08671808,0.01762255,0.02034579,-0.00120562,-0.00346448,0
 .00146001,0.00111151,0.00226815,0.00065527,0.01728086,-0.00763275,-0.0
 0955526,-0.00662473,0.00468944,0.00946692,-0.16641549,-0.05468174,-0.0
 6799413,0.99195426,-0.00036249,0.00010874,-0.00025225,-0.00041432,0.00
 014220,0.00012004,-0.00011691,0.00009748,-0.00006539,0.00004303,-0.000
 12490,0.00010777,-0.00042972,0.00014725,-0.00007863,-0.00352583,-0.002
 16854,-0.00076284,0.00107279,0.00199477,-0.00033074,0.08396938,-0.1080
 1585,-0.02065377,0.01184756,-0.00861982,-0.00237853,0.00199835,0.00083
 319,-0.00093172,0.02539476,-0.12092840,-0.02485679,-0.00086302,-0.0006
 0264,-0.00054525,-0.00038123,0.00086959,0.00009753,0.00579323,-0.02416
 238,-0.02242375,-0.00684992,0.01702087,0.00969088,-0.03061161,-0.15343
 572,-0.09301166,-0.06608954,0.42124361,-0.00037384,0.00011763,-0.00024
 268,-0.00084943,-0.00137688,-0.00075502,-0.00014517,0.00011773,-0.0000
 2020,0.00007512,-0.00012848,0.00024187,-0.00066527,0.00017293,-0.00017
 788,-0.00220485,-0.00246550,0.00274435,0.00372852,0.00718272,-0.004322
 62,-0.00994816,-0.02222564,-0.09615732,-0.01786762,0.00807750,0.011887
 44,0.00026777,0.00165456,-0.00081462,0.03552785,-0.03219247,-0.1171737
 1,0.00010043,0.00008791,0.00074051,-0.00214211,0.00353008,0.00223311,0
 .00035401,-0.01178470,-0.00972671,0.01519967,-0.01650574,-0.01947958,-
 0.04601568,-0.09689805,-0.16234609,0.04121846,0.18826093,0.41589797,-0
 .00003434,0.00000506,-0.00002737,0.00001011,0.00000660,-0.00001839,-0.
 00001124,0.00001107,-0.00000546,-0.00000175,-0.00001031,0.00002041,-0.
 00004307,0.00001387,0.00000489,-0.00017518,-0.00017151,0.00016770,0.00
 089681,0.00006502,-0.00046922,-0.00521848,0.00242104,0.00238713,-0.000
 49426,0.00064034,0.00094480,0.00001693,-0.00000544,-0.00002473,-0.0020
 8731,-0.00121520,-0.00311284,-0.00002400,-0.00001876,0.00002071,0.0000
 2884,-0.00009568,0.00005466,0.00042932,-0.00047771,-0.00039389,-0.0000
 4462,-0.00016342,-0.00007974,-0.22374956,0.18924634,0.14974559,0.02309
 594,-0.01896000,-0.01549172,0.20746572,-0.00003085,0.00001012,0.000026
 94,0.00003520,0.00001978,-0.00001322,-0.00000976,0.00000101,-0.0000133
 3,-0.00000125,-0.00002876,-0.00000326,-0.00002647,0.00000238,-0.000009
 65,-0.00016174,-0.00022153,0.00030841,0.00077752,0.00024088,-0.0004379
 6,0.00273498,0.00166150,0.00859421,-0.00159456,0.00079756,0.00039852,0
 .00004004,0.00005356,0.00020228,-0.00228100,0.00137869,-0.00322149,-0.
 00018311,-0.00016389,-0.00000973,0.00015341,-0.00010460,-0.00006170,0.
 00051123,0.00018641,-0.00069430,0.00036835,-0.00044959,-0.00072625,0.1
 5364211,-0.19290764,-0.14345709,0.01748183,-0.02339297,-0.02509744,-0.
 17110589,0.21314477,-0.00006448,-0.00000160,-0.00003464,0.00001520,0.0
 0002576,-0.00007584,-0.00002158,0.00002289,-0.00000475,0.00000769,-0.0
 0001102,0.00002754,-0.00002894,0.00000061,-0.00000314,-0.00028653,0.00
 001141,0.00002304,0.00085006,0.00006908,-0.00006959,0.00304540,0.00853
 374,0.00185131,-0.00083802,0.00133589,0.00106872,0.00004260,0.00016838
 ,0.00000936,-0.00529192,-0.00489907,0.00145478,-0.00000114,-0.00019496
 ,0.00013561,0.00006021,-0.00032943,0.00002617,0.00118464,-0.00066678,-
 0.00092126,-0.00018189,0.00080419,0.00032541,0.11612793,-0.13777991,-0
 .13203265,0.01944919,-0.03115687,-0.02287720,-0.13362142,0.16436448,0.
 15145959,0.00000025,-0.00000474,0.00001373,-0.00001539,-0.00006008,-0.
 00003152,0.00001188,0.00000468,0.00000980,0.00000746,0.00001211,-0.000
 02130,0.00001035,-0.00000005,0.00000511,-0.00002436,0.00019575,-0.0001
 0163,-0.00041107,-0.00033235,0.00024492,0.00131586,0.00084251,0.000600
 43,0.00199153,0.00062307,0.00048260,-0.00436667,0.00260341,0.00456963,
 0.00855038,-0.01374739,-0.01468472,0.00009701,-0.00146572,0.00121014,-
 0.00007169,-0.00013572,-0.00017111,-0.12332104,0.08298221,0.09436520,0
 .00093022,0.00088078,0.00022610,0.00097489,-0.00103980,-0.00100087,-0.
 00485457,-0.00180526,-0.00070707,-0.00007552,-0.00027335,-0.00039210,0
 .13035458,0.00000917,0.00000668,-0.00000483,-0.00004099,-0.00010211,0.
 00000531,0.00000059,-0.00000183,0.00000284,-0.00000921,0.00000088,0.00
 000240,-0.00001369,0.00000505,-0.00000910,-0.00004280,0.00006868,0.000
 23649,-0.00036029,0.00009936,-0.00030352,0.00001575,-0.00006759,-0.000
 63107,0.00077823,0.00168172,0.00148518,-0.01168408,0.00849402,0.012746
 84,0.01329417,-0.01483902,-0.01531947,-0.00147477,-0.00269819,0.005018
 39,-0.00015194,-0.00011065,-0.00010744,0.07964017,-0.12771913,-0.09967
 966,0.00072103,0.00060119,0.00008929,0.00057558,-0.00147516,-0.0015458
 7,-0.00362404,-0.00165724,-0.00009233,-0.00020867,-0.00009178,-0.00023
 847,-0.08188581,0.14334331,-0.00001260,-0.00001255,0.00002831,-0.00000
 084,-0.00006720,-0.00000924,0.00002589,0.00001073,0.00000675,0.0000063
 2,0.00002109,-0.00005966,0.00001601,0.00000717,0.00000656,0.00000991,0
 .00031706,-0.00034158,-0.00094446,-0.00063858,0.00037847,0.00027427,0.
 00044526,0.00035091,0.00123111,0.00173958,0.00090508,0.01160976,-0.006
 23211,-0.01353496,0.00546165,-0.00789912,-0.00717221,0.00053587,0.0027
 6534,-0.00322106,0.00004130,-0.00021281,-0.00039036,0.09358348,-0.1035
 3663,-0.16628114,-0.00006430,0.00041345,0.00068710,0.00032736,-0.00041
 985,-0.00042810,-0.00215563,-0.00093633,0.00097913,-0.00005056,0.00002
 150,-0.00018375,-0.10241994,0.10621748,0.17623783,-0.00015678,-0.00004
 729,-0.00000505,-0.00014604,0.00022050,0.00018561,-0.00000124,0.000011
 78,-0.00006250,-0.00000443,-0.00001540,0.00005288,-0.00007666,0.000029
 34,-0.00003356,-0.00016074,-0.00063490,0.00083503,0.00166126,0.0008612
 9,-0.00197446,0.00085455,0.00113870,0.00152417,-0.00408827,-0.00380034
 ,-0.00121003,0.00774215,-0.00789376,0.00988982,-0.01267698,0.00790895,
 -0.00613926,0.00062960,0.00010151,-0.00054639,-0.00018469,-0.00008206,
 0.00021836,-0.23510744,0.08412966,-0.10394895,0.00004048,0.00010756,0.
 00027074,0.00031787,0.00003895,-0.00000980,-0.00177694,0.00029074,-0.0
 0006092,0.00001567,-0.00007670,-0.00005490,-0.01110411,0.00446161,-0.0
 0747459,0.25422278,-0.00021074,-0.00005366,-0.00002321,-0.00018413,0.0
 0028211,0.00028473,0.00001570,0.00002078,-0.00007462,-0.00000515,0.000
 00133,0.00004050,-0.00008460,0.00003583,-0.00003783,-0.00009575,-0.000
 68551,0.00069341,0.00098400,0.00093952,-0.00202749,0.00148543,-0.00146
 656,-0.00057356,-0.00551033,-0.00381303,-0.00216284,0.00842005,-0.0100
 4681,0.01161288,-0.01816986,0.01074693,-0.00983256,-0.00035292,0.00083
 824,-0.00137889,-0.00037590,-0.00025792,0.00003543,0.08906668,-0.08492
 076,0.04412615,0.00034682,0.00115239,0.00058481,0.00064212,0.00040858,
 0.00026347,-0.00185029,0.00065076,-0.00043475,0.00002326,-0.00013590,-
 0.00005833,0.01260576,-0.00553820,0.00799653,-0.08675014,0.09184189,0.
 00000197,0.00003381,-0.00001045,-0.00007693,0.00003039,0.00013334,0.00
 000233,-0.00001043,-0.00002714,-0.00000383,0.00000962,-0.00000053,-0.0
 0002670,0.00001192,0.00000056,0.00009985,-0.00019375,0.00025791,0.0000
 6923,0.00014372,-0.00100478,0.00212661,0.00032545,0.00086784,-0.001997
 43,-0.00176466,0.00074399,-0.00843435,0.01442176,-0.01468723,-0.008713
 70,0.00406663,-0.00412437,-0.00055775,-0.00069522,0.00118252,0.0002753
 5,0.00035185,0.00004889,-0.10688661,0.03982134,-0.10072918,0.00015536,
 -0.00022026,0.00047089,0.00120677,0.00063767,0.00072700,-0.00353600,0.
 00010737,-0.00063073,-0.00005055,-0.00017093,-0.00017873,0.01780261,-0
 .00787245,0.01204191,0.10854378,-0.04903382,0.10491830||-0.00000142,0.
 00000840,-0.00000429,-0.00000212,-0.00000669,0.00000251,-0.00000332,-0
 .00000309,0.00000291,0.00000103,-0.00000240,0.00000482,0.00000044,-0.0
 0000401,0.00000150,-0.00000068,-0.00000886,0.00000107,-0.00000067,0.00
 001103,0.00000037,0.00001375,0.00000250,0.00000181,0.00000558,-0.00000
 568,0.00000080,0.00000002,0.00000697,-0.00000498,0.00000415,0.00000626
 ,-0.00000231,0.00000187,0.00000202,-0.00000147,-0.00000227,-0.00000224
 ,-0.00000380,-0.00000395,-0.00000523,0.00001436,-0.00000057,-0.0000052
 1,-0.00000112,0.00001024,0.00001845,0.00001498,-0.00002648,-0.00000679
 ,-0.00001812,0.00000511,-0.00000384,-0.00000839,-0.00000215,-0.0000017
 5,0.00000089,0.00000145,0.00000013,-0.00000153|||@


 A people that values its privileges above its principles soon loses both.
 -- Dwight D. Eisenhower
 Job cpu time:       0 days  0 hours  4 minutes 25.0 seconds.
 File lengths (MBytes):  RWF=    114 Int=      0 D2E=      0 Chk=      4 Scr=      1
 Normal termination of Gaussian 09 at Sun Jan 07 15:44:09 2024.
