 Entering Link 1 = C:\G09W\l1.exe PID=    117852.
  
 Copyright (c) 1988,1990,1992,1993,1995,1998,2003,2009,2013,
            Gaussian, Inc.  All Rights Reserved.
  
 This is part of the Gaussian(R) 09 program.  It is based on
 the Gaussian(R) 03 system (copyright 2003, Gaussian, Inc.),
 the Gaussian(R) 98 system (copyright 1998, Gaussian, Inc.),
 the Gaussian(R) 94 system (copyright 1995, Gaussian, Inc.),
 the Gaussian 92(TM) system (copyright 1992, Gaussian, Inc.),
 the Gaussian 90(TM) system (copyright 1990, Gaussian, Inc.),
 the Gaussian 88(TM) system (copyright 1988, Gaussian, Inc.),
 the Gaussian 86(TM) system (copyright 1986, Carnegie Mellon
 University), and the Gaussian 82(TM) system (copyright 1983,
 Carnegie Mellon University). Gaussian is a federally registered
 trademark of Gaussian, Inc.
  
 This software contains proprietary and confidential information,
 including trade secrets, belonging to Gaussian, Inc.
  
 This software is provided under written license and may be
 used, copied, transmitted, or stored only in accord with that
 written license.
  
 The following legend is applicable only to US Government
 contracts under FAR:
  
                    RESTRICTED RIGHTS LEGEND
  
 Use, reproduction and disclosure by the US Government is
 subject to restrictions as set forth in subparagraphs (a)
 and (c) of the Commercial Computer Software - Restricted
 Rights clause in FAR 52.227-19.
  
 Gaussian, Inc.
 340 Quinnipiac St., Bldg. 40, Wallingford CT 06492
  
  
 ---------------------------------------------------------------
 Warning -- This program may not be used in any manner that
 competes with the business of Gaussian, Inc. or will provide
 assistance to any competitor of Gaussian, Inc.  The licensee
 of this program is prohibited from giving any competitor of
 Gaussian, Inc. access to this program.  By using this program,
 the user acknowledges that Gaussian, Inc. is engaged in the
 business of creating and licensing software in the field of
 computational chemistry and represents and warrants to the
 licensee that it is not a competitor of Gaussian, Inc. and that
 it will not use this program in any manner prohibited above.
 ---------------------------------------------------------------
  

 Cite this work as:
 Gaussian 09, Revision D.01,
 M. J. Frisch, G. W. Trucks, H. B. Schlegel, G. E. Scuseria, 
 M. A. Robb, J. R. Cheeseman, G. Scalmani, V. Barone, B. Mennucci, 
 G. A. Petersson, H. Nakatsuji, M. Caricato, X. Li, H. P. Hratchian, 
 A. F. Izmaylov, J. Bloino, G. Zheng, J. L. Sonnenberg, M. Hada, 
 M. Ehara, K. Toyota, R. Fukuda, J. Hasegawa, M. Ishida, T. Nakajima, 
 Y. Honda, O. Kitao, H. Nakai, T. Vreven, J. A. Montgomery, Jr., 
 J. E. Peralta, F. Ogliaro, M. Bearpark, J. J. Heyd, E. Brothers, 
 K. N. Kudin, V. N. Staroverov, T. Keith, R. Kobayashi, J. Normand, 
 K. Raghavachari, A. Rendell, J. C. Burant, S. S. Iyengar, J. Tomasi, 
 M. Cossi, N. Rega, J. M. Millam, M. Klene, J. E. Knox, J. B. Cross, 
 V. Bakken, C. Adamo, J. Jaramillo, R. Gomperts, R. E. Stratmann, 
 O. Yazyev, A. J. Austin, R. Cammi, C. Pomelli, J. W. Ochterski, 
 R. L. Martin, K. Morokuma, V. G. Zakrzewski, G. A. Voth, 
 P. Salvador, J. J. Dannenberg, S. Dapprich, A. D. Daniels, 
 O. Farkas, J. B. Foresman, J. V. Ortiz, J. Cioslowski, 
 and D. J. Fox, Gaussian, Inc., Wallingford CT, 2013.
 
 ******************************************
 Gaussian 09:  IA32W-G09RevD.01 24-Apr-2013
                08-Feb-2024 
 ******************************************
 %nprocshared=8
 Will use up to    8 processors via shared memory.
 %chk=D:\backups\Depo1\ChemChem\3\out\MATrp\MATrp_D9\MATrp_D9.chk
 ---------------------------------------------------------------
 #p opt=tight freq b3lyp/6-31g(d,p) guess=save geom=connectivity
 ---------------------------------------------------------------
 1/7=10,14=-1,18=20,19=15,26=3,38=1,57=2/1,3;
 2/9=110,12=2,17=6,18=5,40=1/2;
 3/5=1,6=6,7=101,11=2,16=1,25=1,30=1,71=1,74=-5/1,2,3;
 4//1;
 5/5=2,38=5/2;
 6/7=2,8=2,9=2,10=2,28=1/1;
 7//1,2,3,16;
 1/7=10,14=-1,18=20,19=15,26=3/3(2);
 2/9=110/2;
 99//99;
 2/9=110/2;
 3/5=1,6=6,7=101,11=2,16=1,25=1,30=1,71=1,74=-5/1,2,3;
 4/5=5,16=3,69=1/1;
 5/5=2,38=5/2;
 7//1,2,3,16;
 1/7=10,14=-1,18=20,19=15,26=3/3(-5);
 2/9=110/2;
 6/7=2,8=2,9=2,10=2,19=2,28=1/1;
 99/9=1/99;
 Leave Link    1 at Thu Feb 08 11:53:50 2024, MaxMem=           0 cpu:         0.0
 (Enter C:\G09W\l101.exe)
 --------------------------------
 MATrp OptFreq tight B3LYP/6-31Gd
 --------------------------------
 Symbolic Z-matrix:
 Charge =  0 Multiplicity = 1
 N                     1.89042   0.43519   0.00468 
 C                     1.02163   1.1257   -0.92808 
 H                     1.65812   1.69334  -1.61331 
 C                     0.10842   2.12591  -0.23426 
 O                    -0.54394   2.95334  -0.83323 
 C                     0.1756    0.14839  -1.80787 
 H                    -0.41602   0.75942  -2.49884 
 H                     0.90047  -0.41104  -2.40722 
 C                    -0.70243  -0.79536  -1.03976 
 C                    -0.36646  -2.07065  -0.65473 
 H                     0.54162  -2.62674  -0.84573 
 C                    -2.04071  -0.56322  -0.54193 
 N                    -1.4032   -2.64295   0.0579 
 H                    -1.42014  -3.59094   0.3998 
 C                    -2.44903  -1.74594   0.13628 
 C                    -2.942     0.51597  -0.61602 
 H                    -2.66292   1.43295  -1.12659 
 C                    -3.70657  -1.87218   0.73593 
 H                    -3.99885  -2.78546   1.24821 
 C                    -4.1925    0.39383  -0.02151 
 H                    -4.89543   1.22064  -0.07837 
 C                    -4.57117  -0.78753   0.64901 
 H                    -5.55672  -0.85329   1.1019 
 O                     0.06513   1.96078   1.10446 
 H                     1.54001   0.28371   0.93777 
 C                    -0.86409   2.8089    1.80613 
 H                    -0.69935   2.60829   2.86495 
 H                    -0.67135   3.85865   1.57443 
 H                    -1.88726   2.55219   1.52065 
 C                     3.09614  -0.0736   -0.39147 
 C                     3.1264   -1.56099  -0.65226 
 C                     4.2928   -2.08499  -1.04393 
 C                     1.87759  -2.38976  -0.46758 
 O                     4.08795   0.64341  -0.51934 
 H                     4.4016   -3.14632  -1.24956 
 H                     5.16327  -1.44798  -1.1602 
 H                     2.07391  -3.44191  -0.69265 
 H                     1.5019   -2.33598   0.56288 
 H                     1.06518  -2.05731  -1.12847 
 
 NAtoms=     39 NQM=       39 NQMF=       0 NMMI=      0 NMMIF=      0
                NMic=       0 NMicF=      0.
                    Isotopes and Nuclear Properties:
 (Nuclear quadrupole moments (NQMom) in fm**2, nuclear magnetic moments (NMagM)
  in nuclear magnetons)

  Atom         1           2           3           4           5           6           7           8           9          10
 IAtWgt=          14          12           1          12          16          12           1           1          12          12
 AtmWgt=  14.0030740  12.0000000   1.0078250  12.0000000  15.9949146  12.0000000   1.0078250   1.0078250  12.0000000  12.0000000
 NucSpn=           2           0           1           0           0           0           1           1           0           0
 AtZEff=   0.0000000   0.0000000   0.0000000   0.0000000   0.0000000   0.0000000   0.0000000   0.0000000   0.0000000   0.0000000
 NQMom=    2.0440000   0.0000000   0.0000000   0.0000000   0.0000000   0.0000000   0.0000000   0.0000000   0.0000000   0.0000000
 NMagM=    0.4037610   0.0000000   2.7928460   0.0000000   0.0000000   0.0000000   2.7928460   2.7928460   0.0000000   0.0000000
 AtZNuc=   7.0000000   6.0000000   1.0000000   6.0000000   8.0000000   6.0000000   1.0000000   1.0000000   6.0000000   6.0000000

  Atom        11          12          13          14          15          16          17          18          19          20
 IAtWgt=           1          12          14           1          12          12           1          12           1          12
 AtmWgt=   1.0078250  12.0000000  14.0030740   1.0078250  12.0000000  12.0000000   1.0078250  12.0000000   1.0078250  12.0000000
 NucSpn=           1           0           2           1           0           0           1           0           1           0
 AtZEff=   0.0000000   0.0000000   0.0000000   0.0000000   0.0000000   0.0000000   0.0000000   0.0000000   0.0000000   0.0000000
 NQMom=    0.0000000   0.0000000   2.0440000   0.0000000   0.0000000   0.0000000   0.0000000   0.0000000   0.0000000   0.0000000
 NMagM=    2.7928460   0.0000000   0.4037610   2.7928460   0.0000000   0.0000000   2.7928460   0.0000000   2.7928460   0.0000000
 AtZNuc=   1.0000000   6.0000000   7.0000000   1.0000000   6.0000000   6.0000000   1.0000000   6.0000000   1.0000000   6.0000000

  Atom        21          22          23          24          25          26          27          28          29          30
 IAtWgt=           1          12           1          16           1          12           1           1           1          12
 AtmWgt=   1.0078250  12.0000000   1.0078250  15.9949146   1.0078250  12.0000000   1.0078250   1.0078250   1.0078250  12.0000000
 NucSpn=           1           0           1           0           1           0           1           1           1           0
 AtZEff=   0.0000000   0.0000000   0.0000000   0.0000000   0.0000000   0.0000000   0.0000000   0.0000000   0.0000000   0.0000000
 NQMom=    0.0000000   0.0000000   0.0000000   0.0000000   0.0000000   0.0000000   0.0000000   0.0000000   0.0000000   0.0000000
 NMagM=    2.7928460   0.0000000   2.7928460   0.0000000   2.7928460   0.0000000   2.7928460   2.7928460   2.7928460   0.0000000
 AtZNuc=   1.0000000   6.0000000   1.0000000   8.0000000   1.0000000   6.0000000   1.0000000   1.0000000   1.0000000   6.0000000

  Atom        31          32          33          34          35          36          37          38          39
 IAtWgt=          12          12          12          16           1           1           1           1           1
 AtmWgt=  12.0000000  12.0000000  12.0000000  15.9949146   1.0078250   1.0078250   1.0078250   1.0078250   1.0078250
 NucSpn=           0           0           0           0           1           1           1           1           1
 AtZEff=   0.0000000   0.0000000   0.0000000   0.0000000   0.0000000   0.0000000   0.0000000   0.0000000   0.0000000
 NQMom=    0.0000000   0.0000000   0.0000000   0.0000000   0.0000000   0.0000000   0.0000000   0.0000000   0.0000000
 NMagM=    0.0000000   0.0000000   0.0000000   0.0000000   2.7928460   2.7928460   2.7928460   2.7928460   2.7928460
 AtZNuc=   6.0000000   6.0000000   6.0000000   8.0000000   1.0000000   1.0000000   1.0000000   1.0000000   1.0000000
 Leave Link  101 at Thu Feb 08 11:53:50 2024, MaxMem=    33554432 cpu:         0.0
 (Enter C:\G09W\l103.exe)

 GradGradGradGradGradGradGradGradGradGradGradGradGradGradGradGradGradGrad
 Berny optimization.
 Initialization pass.
                           ----------------------------
                           !    Initial Parameters    !
                           ! (Angstroms and Degrees)  !
 --------------------------                            --------------------------
 ! Name  Definition              Value          Derivative Info.                !
 --------------------------------------------------------------------------------
 ! R1    R(1,2)                  1.4497         estimate D2E/DX2                !
 ! R2    R(1,25)                 1.0082         estimate D2E/DX2                !
 ! R3    R(1,30)                 1.3673         estimate D2E/DX2                !
 ! R4    R(2,3)                  1.094          estimate D2E/DX2                !
 ! R5    R(2,4)                  1.5218         estimate D2E/DX2                !
 ! R6    R(2,6)                  1.5636         estimate D2E/DX2                !
 ! R7    R(4,5)                  1.212          estimate D2E/DX2                !
 ! R8    R(4,24)                 1.3496         estimate D2E/DX2                !
 ! R9    R(6,7)                  1.0958         estimate D2E/DX2                !
 ! R10   R(6,8)                  1.0944         estimate D2E/DX2                !
 ! R11   R(6,9)                  1.5005         estimate D2E/DX2                !
 ! R12   R(9,10)                 1.3739         estimate D2E/DX2                !
 ! R13   R(9,12)                 1.4466         estimate D2E/DX2                !
 ! R14   R(10,11)                1.0818         estimate D2E/DX2                !
 ! R15   R(10,13)                1.3821         estimate D2E/DX2                !
 ! R16   R(12,15)                1.4232         estimate D2E/DX2                !
 ! R17   R(12,16)                1.408          estimate D2E/DX2                !
 ! R18   R(13,14)                1.0079         estimate D2E/DX2                !
 ! R19   R(13,15)                1.38           estimate D2E/DX2                !
 ! R20   R(15,18)                1.3989         estimate D2E/DX2                !
 ! R21   R(16,17)                1.086          estimate D2E/DX2                !
 ! R22   R(16,20)                1.39           estimate D2E/DX2                !
 ! R23   R(18,19)                1.0872         estimate D2E/DX2                !
 ! R24   R(18,22)                1.3898         estimate D2E/DX2                !
 ! R25   R(20,21)                1.0867         estimate D2E/DX2                !
 ! R26   R(20,22)                1.4102         estimate D2E/DX2                !
 ! R27   R(22,23)                1.0866         estimate D2E/DX2                !
 ! R28   R(24,26)                1.4405         estimate D2E/DX2                !
 ! R29   R(26,27)                1.0902         estimate D2E/DX2                !
 ! R30   R(26,28)                1.0922         estimate D2E/DX2                !
 ! R31   R(26,29)                1.0928         estimate D2E/DX2                !
 ! R32   R(30,31)                1.5104         estimate D2E/DX2                !
 ! R33   R(30,34)                1.2305         estimate D2E/DX2                !
 ! R34   R(31,32)                1.3373         estimate D2E/DX2                !
 ! R35   R(31,33)                1.5101         estimate D2E/DX2                !
 ! R36   R(32,35)                1.0865         estimate D2E/DX2                !
 ! R37   R(32,36)                1.0849         estimate D2E/DX2                !
 ! R38   R(33,37)                1.0937         estimate D2E/DX2                !
 ! R39   R(33,38)                1.0981         estimate D2E/DX2                !
 ! R40   R(33,39)                1.0988         estimate D2E/DX2                !
 ! A1    A(2,1,25)             117.308          estimate D2E/DX2                !
 ! A2    A(2,1,30)             121.2844         estimate D2E/DX2                !
 ! A3    A(25,1,30)            121.2475         estimate D2E/DX2                !
 ! A4    A(1,2,3)              107.5463         estimate D2E/DX2                !
 ! A5    A(1,2,4)              112.2934         estimate D2E/DX2                !
 ! A6    A(1,2,6)              112.8654         estimate D2E/DX2                !
 ! A7    A(3,2,4)              107.0783         estimate D2E/DX2                !
 ! A8    A(3,2,6)              106.6588         estimate D2E/DX2                !
 ! A9    A(4,2,6)              110.0381         estimate D2E/DX2                !
 ! A10   A(2,4,5)              123.1202         estimate D2E/DX2                !
 ! A11   A(2,4,24)             113.0226         estimate D2E/DX2                !
 ! A12   A(5,4,24)             123.8134         estimate D2E/DX2                !
 ! A13   A(2,6,7)              107.3605         estimate D2E/DX2                !
 ! A14   A(2,6,8)              105.6208         estimate D2E/DX2                !
 ! A15   A(2,6,9)              114.9414         estimate D2E/DX2                !
 ! A16   A(7,6,8)              107.2966         estimate D2E/DX2                !
 ! A17   A(7,6,9)              110.9504         estimate D2E/DX2                !
 ! A18   A(8,6,9)              110.2691         estimate D2E/DX2                !
 ! A19   A(6,9,10)             125.7452         estimate D2E/DX2                !
 ! A20   A(6,9,12)             128.0651         estimate D2E/DX2                !
 ! A21   A(10,9,12)            106.1853         estimate D2E/DX2                !
 ! A22   A(9,10,11)            129.2678         estimate D2E/DX2                !
 ! A23   A(9,10,13)            110.2085         estimate D2E/DX2                !
 ! A24   A(11,10,13)           120.5198         estimate D2E/DX2                !
 ! A25   A(9,12,15)            107.2204         estimate D2E/DX2                !
 ! A26   A(9,12,16)            134.1927         estimate D2E/DX2                !
 ! A27   A(15,12,16)           118.5792         estimate D2E/DX2                !
 ! A28   A(10,13,14)           125.2381         estimate D2E/DX2                !
 ! A29   A(10,13,15)           109.1835         estimate D2E/DX2                !
 ! A30   A(14,13,15)           125.4048         estimate D2E/DX2                !
 ! A31   A(12,15,13)           107.1977         estimate D2E/DX2                !
 ! A32   A(12,15,18)           122.4915         estimate D2E/DX2                !
 ! A33   A(13,15,18)           130.3106         estimate D2E/DX2                !
 ! A34   A(12,16,17)           120.4915         estimate D2E/DX2                !
 ! A35   A(12,16,20)           119.0802         estimate D2E/DX2                !
 ! A36   A(17,16,20)           120.4278         estimate D2E/DX2                !
 ! A37   A(15,18,19)           121.2967         estimate D2E/DX2                !
 ! A38   A(15,18,22)           117.5164         estimate D2E/DX2                !
 ! A39   A(19,18,22)           121.1866         estimate D2E/DX2                !
 ! A40   A(16,20,21)           119.5178         estimate D2E/DX2                !
 ! A41   A(16,20,22)           121.2351         estimate D2E/DX2                !
 ! A42   A(21,20,22)           119.2461         estimate D2E/DX2                !
 ! A43   A(18,22,20)           121.0968         estimate D2E/DX2                !
 ! A44   A(18,22,23)           119.4026         estimate D2E/DX2                !
 ! A45   A(20,22,23)           119.5002         estimate D2E/DX2                !
 ! A46   A(4,24,26)            115.5837         estimate D2E/DX2                !
 ! A47   A(24,26,27)           105.5016         estimate D2E/DX2                !
 ! A48   A(24,26,28)           110.4092         estimate D2E/DX2                !
 ! A49   A(24,26,29)           109.7796         estimate D2E/DX2                !
 ! A50   A(27,26,28)           110.8694         estimate D2E/DX2                !
 ! A51   A(27,26,29)           110.6077         estimate D2E/DX2                !
 ! A52   A(28,26,29)           109.6091         estimate D2E/DX2                !
 ! A53   A(1,30,31)            115.7299         estimate D2E/DX2                !
 ! A54   A(1,30,34)            121.6036         estimate D2E/DX2                !
 ! A55   A(31,30,34)           122.6661         estimate D2E/DX2                !
 ! A56   A(30,31,32)           116.994          estimate D2E/DX2                !
 ! A57   A(30,31,33)           120.1837         estimate D2E/DX2                !
 ! A58   A(32,31,33)           122.8222         estimate D2E/DX2                !
 ! A59   A(31,32,35)           121.7021         estimate D2E/DX2                !
 ! A60   A(31,32,36)           120.0743         estimate D2E/DX2                !
 ! A61   A(35,32,36)           118.2232         estimate D2E/DX2                !
 ! A62   A(31,33,37)           110.7538         estimate D2E/DX2                !
 ! A63   A(31,33,38)           111.7655         estimate D2E/DX2                !
 ! A64   A(31,33,39)           111.8284         estimate D2E/DX2                !
 ! A65   A(37,33,38)           107.555          estimate D2E/DX2                !
 ! A66   A(37,33,39)           107.4571         estimate D2E/DX2                !
 ! A67   A(38,33,39)           107.256          estimate D2E/DX2                !
 ! D1    D(25,1,2,3)           148.3968         estimate D2E/DX2                !
 ! D2    D(25,1,2,4)            30.8465         estimate D2E/DX2                !
 ! D3    D(25,1,2,6)           -94.2394         estimate D2E/DX2                !
 ! D4    D(30,1,2,3)           -36.1475         estimate D2E/DX2                !
 ! D5    D(30,1,2,4)          -153.6978         estimate D2E/DX2                !
 ! D6    D(30,1,2,6)            81.2163         estimate D2E/DX2                !
 ! D7    D(2,1,30,31)         -100.8211         estimate D2E/DX2                !
 ! D8    D(2,1,30,34)           79.4314         estimate D2E/DX2                !
 ! D9    D(25,1,30,31)          74.4555         estimate D2E/DX2                !
 ! D10   D(25,1,30,34)        -105.292          estimate D2E/DX2                !
 ! D11   D(1,2,4,5)            168.1583         estimate D2E/DX2                !
 ! D12   D(1,2,4,24)           -14.165          estimate D2E/DX2                !
 ! D13   D(3,2,4,5)             50.33           estimate D2E/DX2                !
 ! D14   D(3,2,4,24)          -131.9933         estimate D2E/DX2                !
 ! D15   D(6,2,4,5)            -65.2183         estimate D2E/DX2                !
 ! D16   D(6,2,4,24)           112.4584         estimate D2E/DX2                !
 ! D17   D(1,2,6,7)           -177.9941         estimate D2E/DX2                !
 ! D18   D(1,2,6,8)            -63.735          estimate D2E/DX2                !
 ! D19   D(1,2,6,9)             58.0506         estimate D2E/DX2                !
 ! D20   D(3,2,6,7)            -60.1085         estimate D2E/DX2                !
 ! D21   D(3,2,6,8)             54.1506         estimate D2E/DX2                !
 ! D22   D(3,2,6,9)            175.9362         estimate D2E/DX2                !
 ! D23   D(4,2,6,7)             55.7043         estimate D2E/DX2                !
 ! D24   D(4,2,6,8)            169.9634         estimate D2E/DX2                !
 ! D25   D(4,2,6,9)            -68.251          estimate D2E/DX2                !
 ! D26   D(2,4,24,26)         -175.2559         estimate D2E/DX2                !
 ! D27   D(5,4,24,26)            2.4021         estimate D2E/DX2                !
 ! D28   D(2,6,9,10)           -93.415          estimate D2E/DX2                !
 ! D29   D(2,6,9,12)            85.7122         estimate D2E/DX2                !
 ! D30   D(7,6,9,10)           144.5507         estimate D2E/DX2                !
 ! D31   D(7,6,9,12)           -36.3221         estimate D2E/DX2                !
 ! D32   D(8,6,9,10)            25.8148         estimate D2E/DX2                !
 ! D33   D(8,6,9,12)          -155.058          estimate D2E/DX2                !
 ! D34   D(6,9,10,11)           -1.8966         estimate D2E/DX2                !
 ! D35   D(6,9,10,13)          178.8406         estimate D2E/DX2                !
 ! D36   D(12,9,10,11)         178.8189         estimate D2E/DX2                !
 ! D37   D(12,9,10,13)          -0.4439         estimate D2E/DX2                !
 ! D38   D(6,9,12,15)         -179.2265         estimate D2E/DX2                !
 ! D39   D(6,9,12,16)            1.8333         estimate D2E/DX2                !
 ! D40   D(10,9,12,15)           0.0359         estimate D2E/DX2                !
 ! D41   D(10,9,12,16)        -178.9043         estimate D2E/DX2                !
 ! D42   D(9,10,13,14)         176.1204         estimate D2E/DX2                !
 ! D43   D(9,10,13,15)           0.7026         estimate D2E/DX2                !
 ! D44   D(11,10,13,14)         -3.2171         estimate D2E/DX2                !
 ! D45   D(11,10,13,15)       -178.6349         estimate D2E/DX2                !
 ! D46   D(9,12,15,13)           0.3785         estimate D2E/DX2                !
 ! D47   D(9,12,15,18)        -179.4726         estimate D2E/DX2                !
 ! D48   D(16,12,15,13)        179.5131         estimate D2E/DX2                !
 ! D49   D(16,12,15,18)         -0.3379         estimate D2E/DX2                !
 ! D50   D(9,12,16,17)          -1.1117         estimate D2E/DX2                !
 ! D51   D(9,12,16,20)         179.1598         estimate D2E/DX2                !
 ! D52   D(15,12,16,17)       -179.9589         estimate D2E/DX2                !
 ! D53   D(15,12,16,20)          0.3126         estimate D2E/DX2                !
 ! D54   D(10,13,15,12)         -0.6562         estimate D2E/DX2                !
 ! D55   D(10,13,15,18)        179.1791         estimate D2E/DX2                !
 ! D56   D(14,13,15,12)       -176.0646         estimate D2E/DX2                !
 ! D57   D(14,13,15,18)          3.7707         estimate D2E/DX2                !
 ! D58   D(12,15,18,19)        179.9252         estimate D2E/DX2                !
 ! D59   D(12,15,18,22)          0.1236         estimate D2E/DX2                !
 ! D60   D(13,15,18,19)          0.1117         estimate D2E/DX2                !
 ! D61   D(13,15,18,22)       -179.6898         estimate D2E/DX2                !
 ! D62   D(12,16,20,21)       -179.717          estimate D2E/DX2                !
 ! D63   D(12,16,20,22)         -0.0908         estimate D2E/DX2                !
 ! D64   D(17,16,20,21)          0.5544         estimate D2E/DX2                !
 ! D65   D(17,16,20,22)       -179.8195         estimate D2E/DX2                !
 ! D66   D(15,18,22,20)          0.1108         estimate D2E/DX2                !
 ! D67   D(15,18,22,23)        179.8487         estimate D2E/DX2                !
 ! D68   D(19,18,22,20)       -179.691          estimate D2E/DX2                !
 ! D69   D(19,18,22,23)          0.0469         estimate D2E/DX2                !
 ! D70   D(16,20,22,18)         -0.1288         estimate D2E/DX2                !
 ! D71   D(16,20,22,23)       -179.8665         estimate D2E/DX2                !
 ! D72   D(21,20,22,18)        179.4983         estimate D2E/DX2                !
 ! D73   D(21,20,22,23)         -0.2393         estimate D2E/DX2                !
 ! D74   D(4,24,26,27)        -174.8917         estimate D2E/DX2                !
 ! D75   D(4,24,26,28)         -55.0473         estimate D2E/DX2                !
 ! D76   D(4,24,26,29)          65.9058         estimate D2E/DX2                !
 ! D77   D(1,30,31,32)         179.8603         estimate D2E/DX2                !
 ! D78   D(1,30,31,33)          -0.2099         estimate D2E/DX2                !
 ! D79   D(34,30,31,32)         -0.3952         estimate D2E/DX2                !
 ! D80   D(34,30,31,33)        179.5346         estimate D2E/DX2                !
 ! D81   D(30,31,32,35)        179.8175         estimate D2E/DX2                !
 ! D82   D(30,31,32,36)          0.0704         estimate D2E/DX2                !
 ! D83   D(33,31,32,35)         -0.1103         estimate D2E/DX2                !
 ! D84   D(33,31,32,36)       -179.8574         estimate D2E/DX2                !
 ! D85   D(30,31,33,37)       -179.7323         estimate D2E/DX2                !
 ! D86   D(30,31,33,38)        -59.824          estimate D2E/DX2                !
 ! D87   D(30,31,33,39)         60.4416         estimate D2E/DX2                !
 ! D88   D(32,31,33,37)          0.1933         estimate D2E/DX2                !
 ! D89   D(32,31,33,38)        120.1016         estimate D2E/DX2                !
 ! D90   D(32,31,33,39)       -119.6328         estimate D2E/DX2                !
 --------------------------------------------------------------------------------
 Trust Radius=3.00D-01 FncErr=1.00D-07 GrdErr=1.00D-06
 Number of steps in this run=    207 maximum allowed number of steps=    234.
 GradGradGradGradGradGradGradGradGradGradGradGradGradGradGradGradGradGrad

 Leave Link  103 at Thu Feb 08 11:53:50 2024, MaxMem=    33554432 cpu:         0.0
 (Enter C:\G09W\l202.exe)
                          Input orientation:                          
 ---------------------------------------------------------------------
 Center     Atomic      Atomic             Coordinates (Angstroms)
 Number     Number       Type             X           Y           Z
 ---------------------------------------------------------------------
      1          7           0        1.890419    0.435187    0.004676
      2          6           0        1.021634    1.125700   -0.928079
      3          1           0        1.658124    1.693337   -1.613311
      4          6           0        0.108418    2.125905   -0.234262
      5          8           0       -0.543943    2.953338   -0.833230
      6          6           0        0.175600    0.148387   -1.807869
      7          1           0       -0.416021    0.759422   -2.498837
      8          1           0        0.900472   -0.411036   -2.407216
      9          6           0       -0.702434   -0.795357   -1.039757
     10          6           0       -0.366464   -2.070650   -0.654727
     11          1           0        0.541619   -2.626743   -0.845728
     12          6           0       -2.040709   -0.563216   -0.541933
     13          7           0       -1.403204   -2.642950    0.057898
     14          1           0       -1.420137   -3.590942    0.399804
     15          6           0       -2.449031   -1.745942    0.136276
     16          6           0       -2.942003    0.515967   -0.616015
     17          1           0       -2.662924    1.432946   -1.126586
     18          6           0       -3.706570   -1.872183    0.735926
     19          1           0       -3.998846   -2.785464    1.248209
     20          6           0       -4.192503    0.393834   -0.021512
     21          1           0       -4.895433    1.220643   -0.078366
     22          6           0       -4.571173   -0.787531    0.649011
     23          1           0       -5.556724   -0.853293    1.101902
     24          8           0        0.065134    1.960778    1.104458
     25          1           0        1.540008    0.283709    0.937770
     26          6           0       -0.864094    2.808902    1.806125
     27          1           0       -0.699352    2.608295    2.864954
     28          1           0       -0.671346    3.858649    1.574432
     29          1           0       -1.887255    2.552194    1.520654
     30          6           0        3.096143   -0.073601   -0.391471
     31          6           0        3.126396   -1.560989   -0.652257
     32          6           0        4.292796   -2.084990   -1.043935
     33          6           0        1.877594   -2.389757   -0.467576
     34          8           0        4.087948    0.643410   -0.519336
     35          1           0        4.401601   -3.146324   -1.249562
     36          1           0        5.163271   -1.447984   -1.160205
     37          1           0        2.073907   -3.441910   -0.692651
     38          1           0        1.501896   -2.335984    0.562883
     39          1           0        1.065179   -2.057313   -1.128475
 ---------------------------------------------------------------------
                    Distance matrix (angstroms):
                    1          2          3          4          5
     1  N    0.000000
     2  C    1.449699   0.000000
     3  H    2.062713   1.094017   0.000000
     4  C    2.468025   1.521761   2.119075   0.000000
     5  O    3.601290   2.408379   2.654285   1.212016   0.000000
     6  C    2.511609   1.563632   2.150023   2.528108   3.055391
     7  H    3.419411   2.160623   2.440990   2.696407   2.757513
     8  H    2.741042   2.136372   2.373333   3.432950   3.985320
     9  C    3.054172   2.583668   3.477757   3.136889   3.757724
    10  C    3.436212   3.495453   4.380118   4.244217   5.030290
    11  H    3.452226   3.783917   4.527566   4.811363   5.684708
    12  C    4.092598   3.518450   4.463323   3.456122   3.832925
    13  N    4.508405   4.588541   5.564895   5.011221   5.731569
    14  H    5.227391   5.474690   6.438317   5.951543   6.716821
    15  C    4.858546   4.628682   5.635461   4.655002   5.162609
    16  C    4.872790   4.022384   4.852007   3.470260   3.426172
    17  H    4.796687   3.702671   4.356164   2.992786   2.624449
    18  C    6.097948   5.840559   6.856514   5.610713   5.979140
    19  H    6.826596   6.725969   7.762040   6.571825   7.014456
    20  C    6.083119   5.342726   6.200997   4.641471   4.530114
    21  H    6.831663   5.978521   6.747489   5.087468   4.744209
    22  C    6.607751   6.117774   7.076507   5.582728   5.692954
    23  H    7.637017   7.163242   8.118604   6.538715   6.585070
    24  O    2.620804   2.396550   3.161552   1.349560   2.260705
    25  H    1.008166   2.111647   2.917022   2.610899   3.821807
    26  C    4.057965   3.723575   4.393018   2.361238   2.662621
    27  H    4.428375   4.421197   5.142927   3.238878   3.717495
    28  H    4.554873   4.074034   4.502967   2.623320   2.575394
    29  H    4.588107   4.061135   4.809271   2.691498   2.739740
    30  C    1.367321   2.455577   2.585123   3.713360   4.754759
    31  C    2.438015   3.424091   3.697308   4.782896   5.820935
    32  C    3.636247   4.585025   4.641276   5.991346   6.987359
    33  C    2.864174   3.647351   4.246473   4.855473   5.877602
    34  O    2.268717   3.130807   2.864118   4.256256   5.185432
    35  H    4.550425   5.456896   5.575060   6.874492   7.863689
    36  H    3.951562   4.881690   4.728558   6.259521   7.214627
    37  H    3.943579   4.693161   5.233665   5.922316   6.911736
    38  H    2.853408   3.799589   4.582102   4.741906   5.840507
    39  H    2.859652   3.189613   3.828058   4.383415   5.270965
                    6          7          8          9         10
     6  C    0.000000
     7  H    1.095817   0.000000
     8  H    1.094354   1.763950   0.000000
     9  C    1.500531   2.151345   2.141718   0.000000
    10  C    2.558846   3.378240   2.725924   1.373862   0.000000
    11  H    2.959904   3.887925   2.734297   2.222451   1.081820
    12  C    2.649717   2.866785   3.486113   1.446616   2.255699
    13  N    3.710158   4.368931   4.045386   2.260426   1.382097
    14  H    4.626314   5.323160   4.834914   3.225326   2.129214
    15  C    3.775827   4.165789   4.412538   2.310252   2.251268
    16  C    3.357839   3.159885   4.339626   2.629600   3.650409
    17  H    3.189272   2.717587   4.211659   2.969241   4.215633
    18  C    5.062098   5.311944   5.765339   3.652046   3.623481
    19  H    5.947528   6.280383   6.557694   4.479023   4.162490
    20  C    4.725636   4.531292   5.681355   3.825125   4.594912
    21  H    5.464091   5.112390   6.455884   4.750765   5.628176
    22  C    5.426238   5.437582   6.278628   4.221272   4.585379
    23  H    6.506125   6.480200   7.362396   5.306052   5.613065
    24  O    3.431998   3.828642   4.319160   3.575346   4.419663
    25  H    3.068950   3.982790   3.475717   3.178607   3.422527
    26  C    4.606545   4.788928   5.588733   4.595200   5.487573
    27  H    5.352753   5.680569   6.282641   5.179925   5.864426
    28  H    5.091495   5.124638   6.046019   5.338045   6.341821
    29  H    4.594858   4.640568   5.655114   4.377854   5.330645
    30  C    3.253465   4.179739   2.999677   3.920509   4.005890
    31  C    3.600639   4.619836   3.058923   3.923810   3.529848
    32  C    4.745827   5.690376   4.021010   5.159021   4.675510
    33  C    3.336966   4.393634   2.938079   3.086430   2.274347
    34  O    4.148714   4.921140   3.851746   5.028782   5.217877
    35  H    5.387570   6.326533   4.591281   5.623365   4.923956
    36  H    5.276811   6.147608   4.560894   5.903129   5.587593
    37  H    4.211593   5.207038   3.674626   3.851337   2.799501
    38  H    3.681253   4.757528   3.590073   3.130664   2.245828
    39  H    2.473467   3.464945   2.091061   2.173674   1.508051
                   11         12         13         14         15
    11  H    0.000000
    12  C    3.319466   0.000000
    13  N    2.144560   2.256436   0.000000
    14  H    2.515853   3.230960   1.007906   0.000000
    15  C    3.268659   1.423213   1.380044   2.128872   0.000000
    16  C    4.697341   1.407997   3.577823   4.496072   2.434172
    17  H    5.179677   2.171090   4.427508   5.395724   3.427229
    18  C    4.595443   2.474149   2.521765   2.880084   1.398900
    19  H    5.002558   3.460823   2.859110   2.831665   2.172309
    20  C    5.675837   2.411846   4.124143   4.872572   2.764640
    21  H    6.704682   3.398014   5.209758   5.954635   3.851179
    22  C    5.635387   2.805693   3.718605   4.224955   2.384310
    23  H    6.642904   3.892133   4.641610   5.009892   3.374465
    24  O    5.007556   3.676374   4.944251   5.790005   4.582377
    25  H    3.556456   3.965897   4.242877   4.905587   4.546901
    26  C    6.209234   4.274223   5.750620   6.576087   5.103629
    27  H    6.535656   4.844027   5.995877   6.710219   5.428300
    28  H    7.027714   5.089896   6.716121   7.578710   6.053090
    29  H    6.190362   3.739464   5.418808   6.261998   4.550392
    30  C    3.640120   5.162326   5.200732   5.778805   5.815857
    31  C    2.802559   5.263715   4.710864   5.089057   5.633949
    32  C    3.795275   6.533077   5.828360   6.081931   6.852743
    33  C    1.408542   4.323758   3.332247   3.615277   4.415747
    34  O    4.834964   6.246350   6.425427   7.008106   6.990774
    35  H    3.915674   6.976857   5.971482   6.067184   7.128308
    36  H    4.779962   7.284395   6.784565   7.096982   7.727664
    37  H    1.742365   5.023909   3.645815   3.663880   4.901061
    38  H    1.729409   4.112587   2.964598   3.184304   4.017458
    39  H    0.823596   3.496126   2.800601   3.296126   3.747829
                   16         17         18         19         20
    16  C    0.000000
    17  H    1.086010   0.000000
    18  C    2.848784   3.934721   0.000000
    19  H    3.935949   5.021884   1.087171   0.000000
    20  C    1.390000   2.154195   2.438171   3.428940   0.000000
    21  H    2.145116   2.475466   3.412043   4.314228   1.086718
    22  C    2.439999   3.424132   1.389807   2.162945   1.410183
    23  H    3.415096   4.308959   2.143629   2.486297   2.162980
    24  O    3.753715   3.563490   5.390098   6.250073   4.674462
    25  H    4.749380   4.821509   5.675843   6.339960   5.813263
    26  C    3.929633   3.705380   5.580103   6.436992   4.500124
    27  H    4.639447   4.601027   5.800931   6.526344   5.043573
    28  H    4.596462   4.140763   6.538969   7.437938   5.191390
    29  H    3.134337   2.976954   4.847764   5.746620   3.514394
    30  C    6.071015   5.998077   7.126207   7.770561   7.312983
    31  C    6.414088   6.534895   6.979493   7.475305   7.601674
    32  C    7.700027   7.795175   8.197747   8.631102   8.898889
    33  C    5.629723   5.971906   5.735782   6.134579   6.692790
    34  O    7.031771   6.823957   8.286036   8.959778   8.299156
    35  H    8.230569   8.419759   8.444408   8.771350   9.375470
    36  H    8.357555   8.339678   9.080162   9.567325   9.603095
    37  H    6.389837   6.811027   6.157824   6.409071   7.377754
    38  H    5.410329   5.865566   5.231938   5.561462   6.341893
    39  H    4.789770   5.106923   5.126388   5.641204   5.905651
                   21         22         23         24         25
    21  H    0.000000
    22  C    2.160320   0.000000
    23  H    2.476196   1.086621   0.000000
    24  O    5.153067   5.408879   6.286835   0.000000
    25  H    6.582194   6.211076   7.189111   2.239553   0.000000
    26  C    4.724994   5.292984   5.994029   1.440526   3.593097
    27  H    5.309972   5.606517   6.219727   2.025602   3.759318
    28  H    5.247259   6.136126   6.803867   2.089304   4.251543
    29  H    3.657735   4.372292   5.023714   2.082022   4.151134
    30  C    8.101752   7.770459   8.815338   3.945062   2.077525
    31  C    8.509792   7.845005   8.886759   4.986002   2.906497
    32  C    9.812395   9.116985  10.155528   6.233535   4.137116
    33  C    7.685075   6.737989   7.751972   4.968245   3.039142
    34  O    9.012701   8.853982   9.893848   4.533784   2.957117
    35  H   10.338130   9.469907  10.485972   7.101327   4.973757
    36  H   10.462766   9.923148  10.972196   6.537535   4.530816
    37  H    8.407642   7.280307   8.255174   6.037699   4.101653
    38  H    7.347558   6.267957   7.232775   4.562867   2.646656
    39  H    6.883068   6.044855   7.090405   4.704374   3.158356
                   26         27         28         29         30
    26  C    0.000000
    27  H    1.090184   0.000000
    28  H    1.092155   1.797113   0.000000
    29  H    1.092818   1.794827   1.785540   0.000000
    30  C    5.368587   5.674738   5.789761   5.948553   0.000000
    31  C    6.408088   6.662586   6.982368   6.839336   1.510380
    32  C    7.659408   7.888465   8.174680   8.140861   2.429686
    33  C    6.301795   6.536584   7.050494   6.523038   2.618249
    34  O    5.883863   6.183238   6.113306   6.596064   1.230500
    35  H    8.516424   8.721502   9.098317   8.927312   3.447051
    36  H    7.952945   8.186920   8.347536   8.538053   2.598634
    37  H    7.344956   7.546688   8.122453   7.517899   3.532871
    38  H    5.797708   5.881405   6.642266   6.024779   2.927592
    39  H    6.001168   6.389753   6.732001   6.081308   2.933105
                   31         32         33         34         35
    31  C    0.000000
    32  C    1.337340   0.000000
    33  C    1.510122   2.501654   0.000000
    34  O    2.408656   2.785916   3.753457   0.000000
    35  H    2.120426   1.086532   2.748545   3.872168   0.000000
    36  H    2.102295   1.084906   3.487455   2.437409   1.863460
    37  H    2.155743   2.624519   1.093720   4.558096   2.411571
    38  H    2.171677   3.230168   1.098129   4.090923   3.514241
    39  H    2.172956   3.228843   1.098783   4.099035   3.511740
                   36         37         38         39
    36  H    0.000000
    37  H    3.706550   0.000000
    38  H    4.142855   1.768229   0.000000
    39  H    4.143266   1.767649   1.768918   0.000000
 Stoichiometry    C16H18N2O3
 Framework group  C1[X(C16H18N2O3)]
 Deg. of freedom   111
 Full point group                 C1      NOp   1
 Largest Abelian subgroup         C1      NOp   1
 Largest concise Abelian subgroup C1      NOp   1
                         Standard orientation:                         
 ---------------------------------------------------------------------
 Center     Atomic      Atomic             Coordinates (Angstroms)
 Number     Number       Type             X           Y           Z
 ---------------------------------------------------------------------
      1          7           0       -1.928297    0.746661   -0.432144
      2          6           0       -1.163636    1.254541    0.689898
      3          1           0       -1.857173    1.786400    1.347932
      4          6           0       -0.100786    2.254647    0.258744
      5          8           0        0.506755    2.953698    1.040540
      6          6           0       -0.514591    0.118887    1.546621
      7          1           0        0.006557    0.597689    2.383263
      8          1           0       -1.351104   -0.448409    1.966182
      9          6           0        0.406765   -0.794511    0.792698
     10          6           0        0.053636   -1.986455    0.207835
     11          1           0       -0.904473   -2.488774    0.201584
     12          6           0        1.814592   -0.610712    0.515315
     13          7           0        1.146148   -2.550826   -0.423112
     14          1           0        1.155087   -3.451095   -0.876224
     15          6           0        2.244589   -1.734721   -0.244449
     16          6           0        2.759221    0.379285    0.847030
     17          1           0        2.465081    1.249601    1.426211
     18          6           0        3.565764   -1.887685   -0.678061
     19          1           0        3.873409   -2.755165   -1.256657
     20          6           0        4.072948    0.230337    0.418034
     21          1           0        4.808911    0.987842    0.673963
     22          6           0        4.472630   -0.890915   -0.338050
     23          1           0        5.507587   -0.979929   -0.656931
     24          8           0        0.125877    2.243351   -1.071597
     25          1           0       -1.456239    0.677894   -1.320305
     26          6           0        1.196485    3.092537   -1.527446
     27          1           0        1.175016    3.029736   -2.615608
     28          1           0        1.036023    4.120022   -1.193787
     29          1           0        2.150101    2.725727   -1.139739
     30          6           0       -3.207212    0.290454   -0.271452
     31          6           0       -3.364772   -1.210292   -0.206761
     32          6           0       -4.605122   -1.684096   -0.047015
     33          6           0       -2.154796   -2.106432   -0.322342
     34          8           0       -4.161903    1.062581   -0.190729
     35          1           0       -4.806517   -2.750460    0.006451
     36          1           0       -5.443144   -0.999263    0.028781
     37          1           0       -2.444876   -3.159170   -0.260545
     38          1           0       -1.631254   -1.962611   -1.276861
     39          1           0       -1.428075   -1.917137    0.479761
 ---------------------------------------------------------------------
 Rotational constants (GHZ):      0.4824943      0.2445117      0.1817546
 Leave Link  202 at Thu Feb 08 11:53:50 2024, MaxMem=    33554432 cpu:         0.0
 (Enter C:\G09W\l301.exe)
 Standard basis: 6-31G(d,p) (6D, 7F)
 Ernie: Thresh=  0.10000D-02 Tol=  0.10000D-05 Strict=F.
 There are   405 symmetry adapted cartesian basis functions of A   symmetry.
 There are   405 symmetry adapted basis functions of A   symmetry.
   405 basis functions,   714 primitive gaussians,   405 cartesian basis functions
    76 alpha electrons       76 beta electrons
       nuclear repulsion energy      1716.3696379788 Hartrees.
 IExCor=  402 DFT=T Ex+Corr=B3LYP ExCW=0 ScaHFX=  0.200000
 ScaDFX=  0.800000  0.720000  1.000000  0.810000 ScalE2=  1.000000  1.000000
 IRadAn=      0 IRanWt=     -1 IRanGd=            0 ICorTp=0 IEmpDi=  4
 NAtoms=   39 NActive=   39 NUniq=   39 SFac= 1.00D+00 NAtFMM=   60 NAOKFM=F Big=F
 Integral buffers will be    262144 words long.
 Raffenetti 2 integral format.
 Two-electron integral symmetry is turned on.
 Leave Link  301 at Thu Feb 08 11:53:50 2024, MaxMem=    33554432 cpu:         0.0
 (Enter C:\G09W\l302.exe)
 NPDir=0 NMtPBC=     1 NCelOv=     1 NCel=       1 NClECP=     1 NCelD=      1
         NCelK=      1 NCelE2=     1 NClLst=     1 CellRange=     0.0.
 One-electron integrals computed using PRISM.
 NBasis=   405 RedAO= T EigKep=  3.58D-04  NBF=   405
 NBsUse=   405 1.00D-06 EigRej= -1.00D+00 NBFU=   405
 Precomputing XC quadrature grid using
 IXCGrd= 4 IRadAn=           0 IRanWt=          -1 IRanGd=           0 AccXCQ= 0.00D+00.
 Generated NRdTot=       0 NPtTot=           0 NUsed=           0 NTot=          16
 NSgBfM=   402   402   402   402   402 MxSgAt=    39 MxSgA2=    39.
 Leave Link  302 at Thu Feb 08 11:53:51 2024, MaxMem=    33554432 cpu:         1.0
 (Enter C:\G09W\l303.exe)
 DipDrv:  MaxL=1.
 Leave Link  303 at Thu Feb 08 11:53:52 2024, MaxMem=    33554432 cpu:         1.0
 (Enter C:\G09W\l401.exe)
 ExpMin= 1.61D-01 ExpMax= 5.48D+03 ExpMxC= 8.25D+02 IAcc=1 IRadAn=         1 AccDes= 0.00D+00
 Harris functional with IExCor=  402 and IRadAn=       1 diagonalized for initial guess.
 HarFok:  IExCor=  402 AccDes= 0.00D+00 IRadAn=         1 IDoV= 1 UseB2=F ITyADJ=14
 ICtDFT=  3500011 ScaDFX=  1.000000  1.000000  1.000000  1.000000
 FoFCou: FMM=F IPFlag=           0 FMFlag=      100000 FMFlg1=           0
         NFxFlg=           0 DoJE=T BraDBF=F KetDBF=T FulRan=T
         wScrn=  0.000000 ICntrl=     500 IOpCl=  0 I1Cent=   200000004 NGrid=           0
         NMat0=    1 NMatS0=      1 NMatT0=    0 NMatD0=    1 NMtDS0=    0 NMtDT0=    0
 Petite list used in FoFCou.
 Harris En= -955.570550719294    
 JPrj=0 DoOrth=F DoCkMO=F.
 Leave Link  401 at Thu Feb 08 11:53:53 2024, MaxMem=    33554432 cpu:         1.0
 (Enter C:\G09W\l502.exe)
 Closed shell SCF:
 Using DIIS extrapolation, IDIIS=  1040.
 Integral symmetry usage will be decided dynamically.
 IVT=      516292 IEndB=      516292 NGot=    33554432 MDV=    33219211
 LenX=    33219211 LenY=    33054745
 Requested convergence on RMS density matrix=1.00D-08 within 128 cycles.
 Requested convergence on MAX density matrix=1.00D-06.
 Requested convergence on             energy=1.00D-06.
 No special actions if energy rises.
 Fock matrices will be formed incrementally for  20 cycles.
 Integral accuracy reduced to 1.0D-05 until final iterations.

 Cycle   1  Pass 0  IDiag  1:
 FoFJK:  IHMeth= 1 ICntrl=       0 DoSepK=F KAlg= 0 I1Cent=   0 FoldK=F
 IRaf= 740000000 NMat=   1 IRICut=       1 DoRegI=T DoRafI=F ISym2E= 0.
 FoFCou: FMM=F IPFlag=           0 FMFlag=      100000 FMFlg1=           0
         NFxFlg=           0 DoJE=F BraDBF=F KetDBF=F FulRan=T
         wScrn=  0.000000 ICntrl=       0 IOpCl=  0 I1Cent=           0 NGrid=           0
         NMat0=    1 NMatS0=      1 NMatT0=    0 NMatD0=    1 NMtDS0=    0 NMtDT0=    0
 Symmetry not used in FoFCou.
 E= -955.002648108781    
 DIIS: error= 2.24D-02 at cycle   1 NSaved=   1.
 NSaved= 1 IEnMin= 1 EnMin= -955.002648108781     IErMin= 1 ErrMin= 2.24D-02
 ErrMax= 2.24D-02  0.00D+00 EMaxC= 1.00D-01 BMatC= 5.54D-01 BMatP= 5.54D-01
 IDIUse=3 WtCom= 7.76D-01 WtEn= 2.24D-01
 Coeff-Com:  0.100D+01
 Coeff-En:   0.100D+01
 Coeff:      0.100D+01
 Gap=     0.122 Goal=   None    Shift=    0.000
 GapD=    0.122 DampG=1.000 DampE=0.500 DampFc=0.5000 IDamp=-1.
 Damping current iteration by 5.00D-01
 RMSDP=4.43D-03 MaxDP=1.98D-01              OVMax= 2.10D-01

 Cycle   2  Pass 0  IDiag  1:
 RMSU=  2.20D-03    CP:  9.82D-01
 E= -955.188559992187     Delta-E=       -0.185911883406 Rises=F Damp=T
 DIIS: error= 8.41D-03 at cycle   2 NSaved=   2.
 NSaved= 2 IEnMin= 2 EnMin= -955.188559992187     IErMin= 2 ErrMin= 8.41D-03
 ErrMax= 8.41D-03  0.00D+00 EMaxC= 1.00D-01 BMatC= 7.61D-02 BMatP= 5.54D-01
 IDIUse=3 WtCom= 9.16D-01 WtEn= 8.41D-02
 Coeff-Com:  0.171D+00 0.829D+00
 Coeff-En:   0.252D+00 0.748D+00
 Coeff:      0.178D+00 0.822D+00
 Gap=     0.125 Goal=   None    Shift=    0.000
 RMSDP=1.49D-03 MaxDP=6.41D-02 DE=-1.86D-01 OVMax= 1.91D-01

 Cycle   3  Pass 0  IDiag  1:
 RMSU=  1.42D-03    CP:  9.67D-01  8.27D-01
 E= -955.444531393750     Delta-E=       -0.255971401562 Rises=F Damp=F
 DIIS: error= 1.25D-02 at cycle   3 NSaved=   3.
 NSaved= 3 IEnMin= 3 EnMin= -955.444531393750     IErMin= 2 ErrMin= 8.41D-03
 ErrMax= 1.25D-02  0.00D+00 EMaxC= 1.00D-01 BMatC= 1.01D-01 BMatP= 7.61D-02
 IDIUse=2 WtCom= 0.00D+00 WtEn= 1.00D+00
 Coeff-En:   0.000D+00 0.000D+00 0.100D+01
 Coeff:      0.000D+00 0.000D+00 0.100D+01
 Gap=     0.155 Goal=   None    Shift=    0.000
 RMSDP=2.49D-03 MaxDP=1.56D-01 DE=-2.56D-01 OVMax= 2.28D-01

 Cycle   4  Pass 0  IDiag  1:
 RMSU=  1.47D-03    CP:  9.74D-01  1.20D+00 -2.92D-01
 E= -955.019409518522     Delta-E=        0.425121875228 Rises=F Damp=F
 DIIS: error= 3.13D-02 at cycle   4 NSaved=   4.
 NSaved= 4 IEnMin= 3 EnMin= -955.444531393750     IErMin= 2 ErrMin= 8.41D-03
 ErrMax= 3.13D-02  0.00D+00 EMaxC= 1.00D-01 BMatC= 6.28D-01 BMatP= 7.61D-02
 IDIUse=2 WtCom= 0.00D+00 WtEn= 1.00D+00
 Coeff-En:   0.000D+00 0.000D+00 0.800D+00 0.200D+00
 Coeff:      0.000D+00 0.000D+00 0.800D+00 0.200D+00
 Gap=     0.178 Goal=   None    Shift=    0.000
 RMSDP=1.34D-03 MaxDP=8.20D-02 DE= 4.25D-01 OVMax= 1.27D-01

 Cycle   5  Pass 0  IDiag  1:
 RMSU=  2.17D-04    CP:  9.72D-01  9.27D-01  3.55D-01  4.92D-01
 E= -955.492473844009     Delta-E=       -0.473064325487 Rises=F Damp=F
 DIIS: error= 8.39D-03 at cycle   5 NSaved=   5.
 NSaved= 5 IEnMin= 5 EnMin= -955.492473844009     IErMin= 5 ErrMin= 8.39D-03
 ErrMax= 8.39D-03  0.00D+00 EMaxC= 1.00D-01 BMatC= 4.61D-02 BMatP= 7.61D-02
 IDIUse=3 WtCom= 9.16D-01 WtEn= 8.39D-02
 Coeff-Com: -0.258D-02 0.317D-01 0.326D+00-0.753D-01 0.720D+00
 Coeff-En:   0.000D+00 0.000D+00 0.352D+00 0.000D+00 0.648D+00
 Coeff:     -0.236D-02 0.291D-01 0.328D+00-0.690D-01 0.714D+00
 Gap=     0.141 Goal=   None    Shift=    0.000
 RMSDP=5.08D-04 MaxDP=2.80D-02 DE=-4.73D-01 OVMax= 4.74D-02

 Cycle   6  Pass 0  IDiag  1:
 RMSU=  9.15D-05    CP:  9.70D-01  8.68D-01  6.19D-01  2.91D-01  6.64D-01
 E= -955.530526689743     Delta-E=       -0.038052845734 Rises=F Damp=F
 DIIS: error= 8.45D-04 at cycle   6 NSaved=   6.
 NSaved= 6 IEnMin= 6 EnMin= -955.530526689743     IErMin= 6 ErrMin= 8.45D-04
 ErrMax= 8.45D-04  0.00D+00 EMaxC= 1.00D-01 BMatC= 4.42D-04 BMatP= 4.61D-02
 IDIUse=3 WtCom= 9.92D-01 WtEn= 8.45D-03
 Coeff-Com: -0.500D-02 0.195D-01 0.174D+00-0.685D-01 0.488D+00 0.392D+00
 Coeff-En:   0.000D+00 0.000D+00 0.000D+00 0.000D+00 0.000D+00 0.100D+01
 Coeff:     -0.495D-02 0.194D-01 0.173D+00-0.679D-01 0.484D+00 0.397D+00
 Gap=     0.141 Goal=   None    Shift=    0.000
 RMSDP=6.86D-05 MaxDP=3.42D-03 DE=-3.81D-02 OVMax= 1.12D-02

 Cycle   7  Pass 0  IDiag  1:
 RMSU=  2.23D-05    CP:  9.70D-01  8.77D-01  6.06D-01  2.91D-01  7.90D-01
                    CP:  4.26D-01
 E= -955.530973783662     Delta-E=       -0.000447093919 Rises=F Damp=F
 DIIS: error= 1.36D-04 at cycle   7 NSaved=   7.
 NSaved= 7 IEnMin= 7 EnMin= -955.530973783662     IErMin= 7 ErrMin= 1.36D-04
 ErrMax= 1.36D-04  0.00D+00 EMaxC= 1.00D-01 BMatC= 1.62D-05 BMatP= 4.42D-04
 IDIUse=3 WtCom= 9.99D-01 WtEn= 1.36D-03
 Coeff-Com: -0.118D-02 0.330D-02 0.464D-01-0.208D-01 0.134D+00 0.173D+00
 Coeff-Com:  0.665D+00
 Coeff-En:   0.000D+00 0.000D+00 0.000D+00 0.000D+00 0.000D+00 0.000D+00
 Coeff-En:   0.100D+01
 Coeff:     -0.118D-02 0.329D-02 0.463D-01-0.208D-01 0.134D+00 0.173D+00
 Coeff:      0.665D+00
 Gap=     0.141 Goal=   None    Shift=    0.000
 RMSDP=1.29D-05 MaxDP=4.93D-04 DE=-4.47D-04 OVMax= 1.67D-03

 Cycle   8  Pass 0  IDiag  1:
 RMSU=  6.55D-06    CP:  9.70D-01  8.75D-01  6.10D-01  2.92D-01  7.76D-01
                    CP:  4.80D-01  7.20D-01
 E= -955.530988544136     Delta-E=       -0.000014760474 Rises=F Damp=F
 DIIS: error= 3.95D-05 at cycle   8 NSaved=   8.
 NSaved= 8 IEnMin= 8 EnMin= -955.530988544136     IErMin= 8 ErrMin= 3.95D-05
 ErrMax= 3.95D-05  0.00D+00 EMaxC= 1.00D-01 BMatC= 2.17D-06 BMatP= 1.62D-05
 IDIUse=1 WtCom= 1.00D+00 WtEn= 0.00D+00
 Coeff-Com:  0.141D-04-0.534D-03 0.136D-01-0.534D-02 0.350D-01 0.657D-01
 Coeff-Com:  0.386D+00 0.505D+00
 Coeff:      0.141D-04-0.534D-03 0.136D-01-0.534D-02 0.350D-01 0.657D-01
 Coeff:      0.386D+00 0.505D+00
 Gap=     0.141 Goal=   None    Shift=    0.000
 RMSDP=3.56D-06 MaxDP=1.70D-04 DE=-1.48D-05 OVMax= 3.32D-04

 Initial convergence to 1.0D-05 achieved.  Increase integral accuracy.
 Cycle   9  Pass 1  IDiag  1:
 E= -955.531023019004     Delta-E=       -0.000034474868 Rises=F Damp=F
 DIIS: error= 5.80D-05 at cycle   1 NSaved=   1.
 NSaved= 1 IEnMin= 1 EnMin= -955.531023019004     IErMin= 1 ErrMin= 5.80D-05
 ErrMax= 5.80D-05  0.00D+00 EMaxC= 1.00D-01 BMatC= 7.68D-07 BMatP= 7.68D-07
 IDIUse=1 WtCom= 1.00D+00 WtEn= 0.00D+00
 Coeff-Com:  0.100D+01
 Coeff:      0.100D+01
 Gap=     0.141 Goal=   None    Shift=    0.000
 RMSDP=3.56D-06 MaxDP=1.70D-04 DE=-3.45D-05 OVMax= 2.44D-04

 Cycle  10  Pass 1  IDiag  1:
 RMSU=  2.36D-05    CP:  1.00D+00
 E= -955.531023466681     Delta-E=       -0.000000447677 Rises=F Damp=F
 DIIS: error= 1.71D-05 at cycle   2 NSaved=   2.
 NSaved= 2 IEnMin= 2 EnMin= -955.531023466681     IErMin= 2 ErrMin= 1.71D-05
 ErrMax= 1.71D-05  0.00D+00 EMaxC= 1.00D-01 BMatC= 2.99D-07 BMatP= 7.68D-07
 IDIUse=1 WtCom= 1.00D+00 WtEn= 0.00D+00
 Coeff-Com:  0.324D+00 0.676D+00
 Coeff:      0.324D+00 0.676D+00
 Gap=     0.141 Goal=   None    Shift=    0.000
 RMSDP=2.69D-06 MaxDP=1.20D-04 DE=-4.48D-07 OVMax= 2.92D-04

 Cycle  11  Pass 1  IDiag  1:
 RMSU=  2.69D-06    CP:  1.00D+00  1.00D+00
 E= -955.531023398216     Delta-E=        0.000000068465 Rises=F Damp=F
 DIIS: error= 1.89D-05 at cycle   3 NSaved=   3.
 NSaved= 3 IEnMin= 2 EnMin= -955.531023466681     IErMin= 2 ErrMin= 1.71D-05
 ErrMax= 1.89D-05  0.00D+00 EMaxC= 1.00D-01 BMatC= 3.81D-07 BMatP= 2.99D-07
 IDIUse=1 WtCom= 1.00D+00 WtEn= 0.00D+00
 Coeff-Com: -0.342D-02 0.531D+00 0.472D+00
 Coeff:     -0.342D-02 0.531D+00 0.472D+00
 Gap=     0.141 Goal=   None    Shift=    0.000
 RMSDP=1.52D-06 MaxDP=7.62D-05 DE= 6.85D-08 OVMax= 1.48D-04

 Cycle  12  Pass 1  IDiag  1:
 RMSU=  4.72D-07    CP:  1.00D+00  1.01D+00  4.69D-01
 E= -955.531023734548     Delta-E=       -0.000000336332 Rises=F Damp=F
 DIIS: error= 2.15D-06 at cycle   4 NSaved=   4.
 NSaved= 4 IEnMin= 4 EnMin= -955.531023734548     IErMin= 4 ErrMin= 2.15D-06
 ErrMax= 2.15D-06  0.00D+00 EMaxC= 1.00D-01 BMatC= 7.40D-09 BMatP= 2.99D-07
 IDIUse=1 WtCom= 1.00D+00 WtEn= 0.00D+00
 Coeff-Com: -0.807D-02 0.317D+00 0.296D+00 0.395D+00
 Coeff:     -0.807D-02 0.317D+00 0.296D+00 0.395D+00
 Gap=     0.141 Goal=   None    Shift=    0.000
 RMSDP=2.45D-07 MaxDP=1.16D-05 DE=-3.36D-07 OVMax= 2.15D-05

 Cycle  13  Pass 1  IDiag  1:
 RMSU=  1.52D-07    CP:  1.00D+00  1.01D+00  4.70D-01  5.92D-01
 E= -955.531023740704     Delta-E=       -0.000000006155 Rises=F Damp=F
 DIIS: error= 6.89D-07 at cycle   5 NSaved=   5.
 NSaved= 5 IEnMin= 5 EnMin= -955.531023740704     IErMin= 5 ErrMin= 6.89D-07
 ErrMax= 6.89D-07  0.00D+00 EMaxC= 1.00D-01 BMatC= 3.40D-10 BMatP= 7.40D-09
 IDIUse=1 WtCom= 1.00D+00 WtEn= 0.00D+00
 Coeff-Com: -0.409D-02 0.124D+00 0.120D+00 0.216D+00 0.545D+00
 Coeff:     -0.409D-02 0.124D+00 0.120D+00 0.216D+00 0.545D+00
 Gap=     0.141 Goal=   None    Shift=    0.000
 RMSDP=6.92D-08 MaxDP=2.32D-06 DE=-6.16D-09 OVMax= 8.41D-06

 Cycle  14  Pass 1  IDiag  1:
 RMSU=  5.13D-08    CP:  1.00D+00  1.01D+00  4.80D-01  6.05D-01  7.56D-01
 E= -955.531023741066     Delta-E=       -0.000000000362 Rises=F Damp=F
 DIIS: error= 2.24D-07 at cycle   6 NSaved=   6.
 NSaved= 6 IEnMin= 6 EnMin= -955.531023741066     IErMin= 6 ErrMin= 2.24D-07
 ErrMax= 2.24D-07  0.00D+00 EMaxC= 1.00D-01 BMatC= 5.05D-11 BMatP= 3.40D-10
 IDIUse=1 WtCom= 1.00D+00 WtEn= 0.00D+00
 Coeff-Com: -0.126D-02 0.287D-01 0.297D-01 0.711D-01 0.316D+00 0.556D+00
 Coeff:     -0.126D-02 0.287D-01 0.297D-01 0.711D-01 0.316D+00 0.556D+00
 Gap=     0.141 Goal=   None    Shift=    0.000
 RMSDP=2.30D-08 MaxDP=1.02D-06 DE=-3.62D-10 OVMax= 2.68D-06

 Cycle  15  Pass 1  IDiag  1:
 RMSU=  1.61D-08    CP:  1.00D+00  1.01D+00  4.78D-01  6.07D-01  8.25D-01
                    CP:  7.67D-01
 E= -955.531023741134     Delta-E=       -0.000000000068 Rises=F Damp=F
 DIIS: error= 9.07D-08 at cycle   7 NSaved=   7.
 NSaved= 7 IEnMin= 7 EnMin= -955.531023741134     IErMin= 7 ErrMin= 9.07D-08
 ErrMax= 9.07D-08  0.00D+00 EMaxC= 1.00D-01 BMatC= 6.11D-12 BMatP= 5.05D-11
 IDIUse=1 WtCom= 1.00D+00 WtEn= 0.00D+00
 Coeff-Com: -0.205D-03 0.693D-03 0.165D-02 0.134D-01 0.109D+00 0.316D+00
 Coeff-Com:  0.560D+00
 Coeff:     -0.205D-03 0.693D-03 0.165D-02 0.134D-01 0.109D+00 0.316D+00
 Coeff:      0.560D+00
 Gap=     0.141 Goal=   None    Shift=    0.000
 RMSDP=8.57D-09 MaxDP=4.74D-07 DE=-6.82D-11 OVMax= 6.79D-07

 SCF Done:  E(RB3LYP) =  -955.531023741     A.U. after   15 cycles
            NFock= 15  Conv=0.86D-08     -V/T= 2.0084
 KE= 9.476111766724D+02 PE=-5.657239960132D+03 EE= 2.037728121740D+03
 Leave Link  502 at Thu Feb 08 11:55:37 2024, MaxMem=    33554432 cpu:       104.0
 (Enter C:\G09W\l601.exe)
 Copying SCF densities to generalized density rwf, IOpCl= 0 IROHF=0.

 **********************************************************************

            Population analysis using the SCF density.

 **********************************************************************

 Orbital symmetries:
       Occupied  (A) (A) (A) (A) (A) (A) (A) (A) (A) (A) (A) (A)
                 (A) (A) (A) (A) (A) (A) (A) (A) (A) (A) (A) (A)
                 (A) (A) (A) (A) (A) (A) (A) (A) (A) (A) (A) (A)
                 (A) (A) (A) (A) (A) (A) (A) (A) (A) (A) (A) (A)
                 (A) (A) (A) (A) (A) (A) (A) (A) (A) (A) (A) (A)
                 (A) (A) (A) (A) (A) (A) (A) (A) (A) (A) (A) (A)
                 (A) (A) (A) (A)
       Virtual   (A) (A) (A) (A) (A) (A) (A) (A) (A) (A) (A) (A)
                 (A) (A) (A) (A) (A) (A) (A) (A) (A) (A) (A) (A)
                 (A) (A) (A) (A) (A) (A) (A) (A) (A) (A) (A) (A)
                 (A) (A) (A) (A) (A) (A) (A) (A) (A) (A) (A) (A)
                 (A) (A) (A) (A) (A) (A) (A) (A) (A) (A) (A) (A)
                 (A) (A) (A) (A) (A) (A) (A) (A) (A) (A) (A) (A)
                 (A) (A) (A) (A) (A) (A) (A) (A) (A) (A) (A) (A)
                 (A) (A) (A) (A) (A) (A) (A) (A) (A) (A) (A) (A)
                 (A) (A) (A) (A) (A) (A) (A) (A) (A) (A) (A) (A)
                 (A) (A) (A) (A) (A) (A) (A) (A) (A) (A) (A) (A)
                 (A) (A) (A) (A) (A) (A) (A) (A) (A) (A) (A) (A)
                 (A) (A) (A) (A) (A) (A) (A) (A) (A) (A) (A) (A)
                 (A) (A) (A) (A) (A) (A) (A) (A) (A) (A) (A) (A)
                 (A) (A) (A) (A) (A) (A) (A) (A) (A) (A) (A) (A)
                 (A) (A) (A) (A) (A) (A) (A) (A) (A) (A) (A) (A)
                 (A) (A) (A) (A) (A) (A) (A) (A) (A) (A) (A) (A)
                 (A) (A) (A) (A) (A) (A) (A) (A) (A) (A) (A) (A)
                 (A) (A) (A) (A) (A) (A) (A) (A) (A) (A) (A) (A)
                 (A) (A) (A) (A) (A) (A) (A) (A) (A) (A) (A) (A)
                 (A) (A) (A) (A) (A) (A) (A) (A) (A) (A) (A) (A)
                 (A) (A) (A) (A) (A) (A) (A) (A) (A) (A) (A) (A)
                 (A) (A) (A) (A) (A) (A) (A) (A) (A) (A) (A) (A)
                 (A) (A) (A) (A) (A) (A) (A) (A) (A) (A) (A) (A)
                 (A) (A) (A) (A) (A) (A) (A) (A) (A) (A) (A) (A)
                 (A) (A) (A) (A) (A) (A) (A) (A) (A) (A) (A) (A)
                 (A) (A) (A) (A) (A) (A) (A) (A) (A) (A) (A) (A)
                 (A) (A) (A) (A) (A) (A) (A) (A) (A) (A) (A) (A)
                 (A) (A) (A) (A) (A)
 The electronic state is 1-A.
 Alpha  occ. eigenvalues --  -19.20037 -19.13836 -19.13239 -14.37365 -14.32381
 Alpha  occ. eigenvalues --  -10.31815 -10.29431 -10.24249 -10.24124 -10.21470
 Alpha  occ. eigenvalues --  -10.20258 -10.19809 -10.19343 -10.19007 -10.18776
 Alpha  occ. eigenvalues --  -10.18607 -10.18233 -10.18194 -10.18129 -10.17959
 Alpha  occ. eigenvalues --  -10.17659  -1.10669  -1.03725  -1.01781  -0.97508
 Alpha  occ. eigenvalues --   -0.91779  -0.84569  -0.83120  -0.80715  -0.76820
 Alpha  occ. eigenvalues --   -0.76089  -0.73308  -0.72555  -0.69915  -0.66616
 Alpha  occ. eigenvalues --   -0.63055  -0.61022  -0.59922  -0.57868  -0.56196
 Alpha  occ. eigenvalues --   -0.55038  -0.54517  -0.52902  -0.51773  -0.48925
 Alpha  occ. eigenvalues --   -0.48139  -0.47298  -0.47237  -0.45596  -0.45131
 Alpha  occ. eigenvalues --   -0.44283  -0.43565  -0.43270  -0.42449  -0.42301
 Alpha  occ. eigenvalues --   -0.41741  -0.41072  -0.40418  -0.39207  -0.38548
 Alpha  occ. eigenvalues --   -0.37754  -0.37210  -0.36387  -0.35732  -0.34846
 Alpha  occ. eigenvalues --   -0.33089  -0.32856  -0.30555  -0.29176  -0.28418
 Alpha  occ. eigenvalues --   -0.27090  -0.25855  -0.24972  -0.22498  -0.21666
 Alpha  occ. eigenvalues --   -0.19799
 Alpha virt. eigenvalues --   -0.05657  -0.00901   0.00421   0.02978   0.05054
 Alpha virt. eigenvalues --    0.06007   0.07430   0.08229   0.09793   0.10623
 Alpha virt. eigenvalues --    0.11543   0.12074   0.12176   0.14088   0.15062
 Alpha virt. eigenvalues --    0.15544   0.15603   0.15871   0.16950   0.17187
 Alpha virt. eigenvalues --    0.17355   0.17567   0.18458   0.18775   0.20236
 Alpha virt. eigenvalues --    0.22033   0.23018   0.23643   0.23946   0.26545
 Alpha virt. eigenvalues --    0.27271   0.27955   0.29141   0.30179   0.31410
 Alpha virt. eigenvalues --    0.32606   0.33386   0.34290   0.35244   0.37209
 Alpha virt. eigenvalues --    0.38888   0.40651   0.42251   0.42334   0.44390
 Alpha virt. eigenvalues --    0.47614   0.48491   0.49659   0.50837   0.51178
 Alpha virt. eigenvalues --    0.52162   0.53349   0.53979   0.54357   0.55099
 Alpha virt. eigenvalues --    0.55957   0.56480   0.56888   0.57494   0.58405
 Alpha virt. eigenvalues --    0.58681   0.59914   0.60180   0.60407   0.61390
 Alpha virt. eigenvalues --    0.61692   0.62393   0.62756   0.63679   0.64073
 Alpha virt. eigenvalues --    0.64181   0.65932   0.66125   0.67980   0.68858
 Alpha virt. eigenvalues --    0.69731   0.71077   0.72174   0.73232   0.73312
 Alpha virt. eigenvalues --    0.75151   0.75498   0.78016   0.78381   0.78917
 Alpha virt. eigenvalues --    0.79847   0.80805   0.81136   0.81465   0.82022
 Alpha virt. eigenvalues --    0.82450   0.83350   0.83812   0.84768   0.85094
 Alpha virt. eigenvalues --    0.85236   0.86727   0.87609   0.88091   0.88887
 Alpha virt. eigenvalues --    0.89648   0.90644   0.90766   0.91908   0.92983
 Alpha virt. eigenvalues --    0.93810   0.95000   0.95257   0.95910   0.96600
 Alpha virt. eigenvalues --    0.97021   0.98318   1.00340   1.00502   1.01906
 Alpha virt. eigenvalues --    1.03301   1.04045   1.05407   1.07578   1.08845
 Alpha virt. eigenvalues --    1.09062   1.10491   1.11487   1.12987   1.14701
 Alpha virt. eigenvalues --    1.16220   1.17117   1.18302   1.18615   1.20018
 Alpha virt. eigenvalues --    1.23036   1.24847   1.25829   1.27648   1.29067
 Alpha virt. eigenvalues --    1.31762   1.31933   1.33451   1.34856   1.35550
 Alpha virt. eigenvalues --    1.37043   1.38215   1.38575   1.39995   1.41073
 Alpha virt. eigenvalues --    1.42190   1.42863   1.43272   1.44460   1.45505
 Alpha virt. eigenvalues --    1.46480   1.47556   1.48619   1.52162   1.54255
 Alpha virt. eigenvalues --    1.57407   1.57586   1.60688   1.61493   1.64748
 Alpha virt. eigenvalues --    1.64993   1.68232   1.71170   1.73154   1.74023
 Alpha virt. eigenvalues --    1.74904   1.76439   1.77220   1.78239   1.78860
 Alpha virt. eigenvalues --    1.79960   1.80424   1.81561   1.82493   1.83865
 Alpha virt. eigenvalues --    1.84252   1.85347   1.85626   1.86375   1.87929
 Alpha virt. eigenvalues --    1.89081   1.90451   1.90719   1.91770   1.91985
 Alpha virt. eigenvalues --    1.92888   1.93858   1.94854   1.95184   1.96564
 Alpha virt. eigenvalues --    1.96818   1.97264   1.98285   1.99763   2.00401
 Alpha virt. eigenvalues --    2.01169   2.02343   2.02748   2.03467   2.04243
 Alpha virt. eigenvalues --    2.05497   2.06267   2.07582   2.08219   2.10345
 Alpha virt. eigenvalues --    2.10856   2.11874   2.12091   2.12774   2.14537
 Alpha virt. eigenvalues --    2.16830   2.18288   2.19573   2.20899   2.22585
 Alpha virt. eigenvalues --    2.23460   2.25382   2.27370   2.28731   2.30271
 Alpha virt. eigenvalues --    2.30459   2.32083   2.34271   2.35071   2.36986
 Alpha virt. eigenvalues --    2.37518   2.38627   2.39582   2.40047   2.41147
 Alpha virt. eigenvalues --    2.42575   2.44963   2.45167   2.46166   2.47141
 Alpha virt. eigenvalues --    2.47818   2.48012   2.49080   2.50643   2.51026
 Alpha virt. eigenvalues --    2.52946   2.53803   2.53972   2.54941   2.56041
 Alpha virt. eigenvalues --    2.57219   2.58233   2.58916   2.59720   2.60496
 Alpha virt. eigenvalues --    2.62346   2.62898   2.63712   2.67238   2.68563
 Alpha virt. eigenvalues --    2.69887   2.70488   2.70981   2.71231   2.72429
 Alpha virt. eigenvalues --    2.74441   2.75968   2.77531   2.77813   2.78800
 Alpha virt. eigenvalues --    2.80587   2.81730   2.83203   2.84381   2.85487
 Alpha virt. eigenvalues --    2.86803   2.87877   2.89448   2.89594   2.92961
 Alpha virt. eigenvalues --    2.94197   2.94871   2.96774   2.98806   3.01309
 Alpha virt. eigenvalues --    3.03607   3.07484   3.09422   3.10556   3.13331
 Alpha virt. eigenvalues --    3.16149   3.19616   3.22247   3.23092   3.24746
 Alpha virt. eigenvalues --    3.25665   3.31371   3.32814   3.36459   3.39134
 Alpha virt. eigenvalues --    3.40714   3.41422   3.43276   3.44515   3.45465
 Alpha virt. eigenvalues --    3.47451   3.49557   3.50709   3.54037   3.58964
 Alpha virt. eigenvalues --    3.79162   3.85823   3.94123   4.05610   4.06506
 Alpha virt. eigenvalues --    4.10898   4.14431   4.16528   4.20307   4.23669
 Alpha virt. eigenvalues --    4.26678   4.29470   4.36157   4.40892   4.42664
 Alpha virt. eigenvalues --    4.46206   4.47683   4.51189   4.57781   4.59370
 Alpha virt. eigenvalues --    4.70731   4.78562   4.84601   4.90957
          Condensed to atoms (all electrons):
               1          2          3          4          5          6
     1  N    7.127255   0.255252  -0.055404  -0.029132   0.002501  -0.079512
     2  C    0.255252   5.017635   0.378985   0.355651  -0.068736   0.314666
     3  H   -0.055404   0.378985   0.585976  -0.025821  -0.001198  -0.045482
     4  C   -0.029132   0.355651  -0.025821   4.351995   0.508140  -0.040641
     5  O    0.002501  -0.068736  -0.001198   0.508140   8.101993   0.001483
     6  C   -0.079512   0.314666  -0.045482  -0.040641   0.001483   5.182323
     7  H    0.005907  -0.037999   0.001689  -0.005586   0.005877   0.350017
     8  H   -0.004566  -0.037670  -0.006254   0.005289   0.000115   0.372626
     9  C   -0.003269  -0.047418   0.005725  -0.007141  -0.001610   0.350539
    10  C    0.005929  -0.003343   0.000083  -0.000597  -0.000020  -0.096315
    11  H    0.000561   0.001131   0.000022  -0.000006   0.000000  -0.007324
    12  C   -0.000804  -0.002830   0.000017   0.003282  -0.000382  -0.054200
    13  N   -0.000109   0.000030   0.000000   0.000000   0.000000   0.006542
    14  H   -0.000004   0.000000   0.000000   0.000000   0.000000  -0.000092
    15  C    0.000083   0.000015   0.000003  -0.000090   0.000003   0.009527
    16  C    0.000014  -0.000168  -0.000024   0.002851  -0.004383  -0.011342
    17  H    0.000005  -0.000399   0.000030   0.000524   0.011109   0.002425
    18  C    0.000000   0.000001   0.000000  -0.000004   0.000000  -0.000179
    19  H    0.000000   0.000000   0.000000   0.000000   0.000000   0.000001
    20  C    0.000001  -0.000012   0.000000  -0.000013   0.000063   0.000032
    21  H    0.000000   0.000000   0.000000   0.000002  -0.000004   0.000000
    22  C    0.000000  -0.000001   0.000000  -0.000003   0.000001   0.000005
    23  H    0.000000   0.000000   0.000000   0.000000   0.000000   0.000000
    24  O   -0.005411  -0.088759   0.001941   0.266251  -0.079164  -0.002241
    25  H    0.339789  -0.026326   0.005416  -0.009997   0.000194  -0.000601
    26  C   -0.000118   0.007438  -0.000145  -0.021341   0.005137  -0.000156
    27  H   -0.000022  -0.000038   0.000004   0.004374   0.000674  -0.000001
    28  H   -0.000039   0.000165   0.000027  -0.005457   0.007209  -0.000030
    29  H    0.000007  -0.000432  -0.000013  -0.005130   0.003677   0.000108
    30  C    0.259183  -0.021743   0.003399   0.000079  -0.000026  -0.003827
    31  C   -0.147904   0.003013  -0.000130  -0.000127   0.000001   0.002781
    32  C    0.009450   0.000081  -0.000052   0.000005   0.000000  -0.000078
    33  C    0.001903  -0.002743   0.000173  -0.000076   0.000000  -0.001835
    34  O   -0.114972  -0.001609   0.005796  -0.000230   0.000000  -0.000289
    35  H   -0.000190   0.000000  -0.000001   0.000000   0.000000   0.000003
    36  H    0.000608  -0.000009  -0.000008   0.000000   0.000000  -0.000002
    37  H    0.000583  -0.000032   0.000008   0.000000   0.000000  -0.000106
    38  H    0.004116   0.000234  -0.000005   0.000009   0.000000   0.000377
    39  H   -0.003088   0.001095  -0.000199   0.000074  -0.000001   0.012292
               7          8          9         10         11         12
     1  N    0.005907  -0.004566  -0.003269   0.005929   0.000561  -0.000804
     2  C   -0.037999  -0.037670  -0.047418  -0.003343   0.001131  -0.002830
     3  H    0.001689  -0.006254   0.005725   0.000083   0.000022   0.000017
     4  C   -0.005586   0.005289  -0.007141  -0.000597  -0.000006   0.003282
     5  O    0.005877   0.000115  -0.001610  -0.000020   0.000000  -0.000382
     6  C    0.350017   0.372626   0.350539  -0.096315  -0.007324  -0.054200
     7  H    0.601489  -0.028638  -0.021814   0.005060  -0.000136  -0.007219
     8  H   -0.028638   0.626290  -0.030299  -0.010866   0.001219   0.003749
     9  C   -0.021814  -0.030299   5.061465   0.505026  -0.048206   0.391279
    10  C    0.005060  -0.010866   0.505026   5.367286   0.444997   0.017486
    11  H   -0.000136   0.001219  -0.048206   0.444997   0.785149   0.003951
    12  C   -0.007219   0.003749   0.391279   0.017486   0.003951   4.814430
    13  N   -0.000053  -0.000084  -0.061671   0.242367  -0.050526  -0.053709
    14  H    0.000003  -0.000006   0.005086  -0.033697  -0.004484   0.006874
    15  C   -0.000156  -0.000027   0.000796  -0.123916   0.007659   0.456628
    16  C    0.003223  -0.000055  -0.107543   0.014863  -0.000244   0.489978
    17  H    0.001583  -0.000014  -0.008196  -0.000182  -0.000003  -0.035635
    18  C   -0.000001   0.000004   0.013206   0.005360  -0.000191  -0.050564
    19  H    0.000000   0.000000  -0.000284   0.000008   0.000003   0.004503
    20  C    0.000005   0.000002   0.008387  -0.000441   0.000006  -0.008890
    21  H    0.000001   0.000000  -0.000208   0.000005   0.000000   0.002369
    22  C    0.000000   0.000000  -0.000039  -0.000107   0.000002  -0.036213
    23  H    0.000000   0.000000   0.000007   0.000004   0.000000   0.001000
    24  O    0.000295  -0.000097   0.002619   0.000034  -0.000004  -0.000438
    25  H   -0.000054  -0.000121   0.002875   0.000835   0.000162   0.000142
    26  C   -0.000026   0.000006   0.000021   0.000003   0.000000   0.000070
    27  H    0.000000   0.000000  -0.000003   0.000000   0.000000  -0.000011
    28  H   -0.000001   0.000000   0.000008   0.000000   0.000000   0.000013
    29  H   -0.000006   0.000000  -0.000189  -0.000005   0.000000   0.000090
    30  C    0.000139   0.002624   0.001091   0.000183   0.002010   0.000048
    31  C   -0.000102   0.002987  -0.000177   0.010610   0.008422  -0.000047
    32  C   -0.000002   0.000259  -0.000041   0.000052  -0.001619   0.000000
    33  C    0.000390  -0.006565  -0.006104  -0.220262  -0.206143  -0.000625
    34  O    0.000000   0.000016   0.000011  -0.000001   0.000004   0.000000
    35  H    0.000000  -0.000002   0.000000  -0.000028  -0.000088   0.000000
    36  H    0.000000   0.000008   0.000002   0.000005   0.000033   0.000000
    37  H    0.000005   0.000164   0.000932  -0.004023   0.038014   0.000019
    38  H   -0.000012   0.000142   0.000397   0.004263  -0.043561  -0.000427
    39  H   -0.000938   0.002142  -0.013262  -0.185868  -0.064916   0.001129
              13         14         15         16         17         18
     1  N   -0.000109  -0.000004   0.000083   0.000014   0.000005   0.000000
     2  C    0.000030   0.000000   0.000015  -0.000168  -0.000399   0.000001
     3  H    0.000000   0.000000   0.000003  -0.000024   0.000030   0.000000
     4  C    0.000000   0.000000  -0.000090   0.002851   0.000524  -0.000004
     5  O    0.000000   0.000000   0.000003  -0.004383   0.011109   0.000000
     6  C    0.006542  -0.000092   0.009527  -0.011342   0.002425  -0.000179
     7  H   -0.000053   0.000003  -0.000156   0.003223   0.001583  -0.000001
     8  H   -0.000084  -0.000006  -0.000027  -0.000055  -0.000014   0.000004
     9  C   -0.061671   0.005086   0.000796  -0.107543  -0.008196   0.013206
    10  C    0.242367  -0.033697  -0.123916   0.014863  -0.000182   0.005360
    11  H   -0.050526  -0.004484   0.007659  -0.000244  -0.000003  -0.000191
    12  C   -0.053709   0.006874   0.456628   0.489978  -0.035635  -0.050564
    13  N    7.031888   0.360755   0.246546   0.011788  -0.000104  -0.091143
    14  H    0.360755   0.445862  -0.031529  -0.000122   0.000004  -0.004495
    15  C    0.246546  -0.031529   4.807226  -0.057226   0.005252   0.478121
    16  C    0.011788  -0.000122  -0.057226   5.075790   0.357209  -0.057352
    17  H   -0.000104   0.000004   0.005252   0.357209   0.601276   0.000402
    18  C   -0.091143  -0.004495   0.478121  -0.057352   0.000402   4.989124
    19  H   -0.006242   0.002767  -0.037984   0.000564   0.000017   0.356202
    20  C   -0.000165  -0.000002  -0.043976   0.501432  -0.040479  -0.030939
    21  H    0.000003   0.000000   0.001111  -0.036325  -0.005359   0.004683
    22  C    0.005317  -0.000085  -0.005968  -0.028258   0.004341   0.529614
    23  H   -0.000116  -0.000001   0.002998   0.004676  -0.000172  -0.038228
    24  O   -0.000001   0.000000  -0.000075   0.000249  -0.000560   0.000004
    25  H   -0.000064  -0.000001   0.000004  -0.000007  -0.000002   0.000000
    26  C   -0.000001   0.000000   0.000014  -0.001893   0.000015   0.000011
    27  H    0.000000   0.000000   0.000000   0.000015   0.000005   0.000000
    28  H    0.000000   0.000000   0.000000   0.000071  -0.000060   0.000000
    29  H    0.000002   0.000000  -0.000013   0.004213   0.000866  -0.000045
    30  C   -0.000031   0.000000   0.000000  -0.000001   0.000000   0.000000
    31  C    0.000045  -0.000005   0.000015  -0.000001   0.000000   0.000000
    32  C    0.000003   0.000000   0.000000   0.000000   0.000000   0.000000
    33  C    0.009662   0.000479  -0.000703   0.000011   0.000000   0.000017
    34  O    0.000000   0.000000   0.000000   0.000000   0.000000   0.000000
    35  H    0.000000   0.000000   0.000000   0.000000   0.000000   0.000000
    36  H    0.000000   0.000000   0.000000   0.000000   0.000000   0.000000
    37  H   -0.000499   0.000090  -0.000009   0.000000   0.000000  -0.000001
    38  H    0.000911   0.000297   0.000400   0.000000   0.000000   0.000009
    39  H    0.009040   0.000258  -0.002213   0.000099   0.000001   0.000002
              19         20         21         22         23         24
     1  N    0.000000   0.000001   0.000000   0.000000   0.000000  -0.005411
     2  C    0.000000  -0.000012   0.000000  -0.000001   0.000000  -0.088759
     3  H    0.000000   0.000000   0.000000   0.000000   0.000000   0.001941
     4  C    0.000000  -0.000013   0.000002  -0.000003   0.000000   0.266251
     5  O    0.000000   0.000063  -0.000004   0.000001   0.000000  -0.079164
     6  C    0.000001   0.000032   0.000000   0.000005   0.000000  -0.002241
     7  H    0.000000   0.000005   0.000001   0.000000   0.000000   0.000295
     8  H    0.000000   0.000002   0.000000   0.000000   0.000000  -0.000097
     9  C   -0.000284   0.008387  -0.000208  -0.000039   0.000007   0.002619
    10  C    0.000008  -0.000441   0.000005  -0.000107   0.000004   0.000034
    11  H    0.000003   0.000006   0.000000   0.000002   0.000000  -0.000004
    12  C    0.004503  -0.008890   0.002369  -0.036213   0.001000  -0.000438
    13  N   -0.006242  -0.000165   0.000003   0.005317  -0.000116  -0.000001
    14  H    0.002767  -0.000002   0.000000  -0.000085  -0.000001   0.000000
    15  C   -0.037984  -0.043976   0.001111  -0.005968   0.002998  -0.000075
    16  C    0.000564   0.501432  -0.036325  -0.028258   0.004676   0.000249
    17  H    0.000017  -0.040479  -0.005359   0.004341  -0.000172  -0.000560
    18  C    0.356202  -0.030939   0.004683   0.529614  -0.038228   0.000004
    19  H    0.647483   0.004385  -0.000182  -0.039127  -0.006022   0.000000
    20  C    0.004385   4.867244   0.366047   0.521369  -0.039362  -0.000013
    21  H   -0.000182   0.366047   0.636117  -0.040252  -0.005914   0.000000
    22  C   -0.039127   0.521369  -0.040252   4.829591   0.365087   0.000000
    23  H   -0.006022  -0.039362  -0.005914   0.365087   0.638960   0.000000
    24  O    0.000000  -0.000013   0.000000   0.000000   0.000000   8.244855
    25  H    0.000000   0.000000   0.000000   0.000000   0.000000   0.018474
[...]
 0.00001215,-0.00000865,0.00004709,-0.00003494,0.00001452,0.00031076,0.
 00010876,-0.00013825,-0.00009697,-0.00008408,0.00005941,-0.00002197,0.
 00000138,-0.00001027,-0.00001188,-0.00001652,0.00000701,-0.00001813,-0
 .00000364,0.00000558,0.00001410,-0.00002247,-0.00002983,0.00002226,-0.
 00001074,-0.00001350,-0.00000478,-0.00001669,0.00000507,0.00001119,0.0
 0003486,0.00001397,-0.00003130,0.00000326,-0.00000410,0.00000449,0.000
 01150,0.00002183,-0.00000813,0.00000177,0.00000280,0.00000258,-0.00000
 688,0.00000209,-0.00000131,-0.00000752,-0.00000211,0.00000311,0.000002
 09,0.00000394,-0.00000098,0.00000313,0.00000386,-0.00000258,0.00000229
 ,-0.00000256,-0.00000120,0.00000655,-0.00000576,-0.00000388,0.00000410
 ,0.00000022,-0.00000203,0.00003462,-0.00003551,-0.00014418,0.00016849,
 0.00019123,0.00017290,-0.00002685,0.00002781,0.00006117,0.00000313,0.0
 0000088,-0.00001130,0.00000765,-0.00000873,-0.00000332,0.00000566,-0.0
 0000786,-0.00000634,0.00595427,0.00675856,0.00158583,0.00734785,-0.003
 33519,0.00853021,0.12166230,-0.17577428,0.09158354,-0.00413854,-0.0038
 7982,-0.00121091,-0.00029049,-0.00049877,-0.00052256,-0.13557229,0.178
 50663,0.00024275,-0.00085749,0.00083186,0.00000014,-0.00029807,-0.0002
 4978,0.00002550,-0.00004738,0.00000706,0.00003290,-0.00009085,0.000095
 53,0.00001570,-0.00001693,-0.00002924,-0.00003542,0.00004527,-0.000028
 50,-0.00001214,-0.00000540,-0.00000679,0.00002536,0.00000951,0.0000183
 3,0.00000784,0.00000905,-0.00001033,0.00000255,0.00001942,-0.00000414,
 0.00000118,0.00000869,-0.00000194,0.00000576,-0.00000912,-0.00000200,-
 0.00001826,-0.00001287,0.00000614,-0.00000128,0.00000728,0.00000611,-0
 .00000404,-0.00000658,0.00000453,0.00000016,-0.00000225,-0.00000174,0.
 00000247,-0.00000112,0.00000033,0.00000255,0.00000062,-0.00000335,-0.0
 0000043,-0.00000162,0.00000160,-0.00000148,-0.00000195,0.00000025,-0.0
 0000041,0.00000096,0.00000089,-0.00000198,0.00000213,-0.00000005,-0.00
 000146,0.00000002,0.00000141,-0.00002087,0.00002128,0.00000578,0.00001
 222,0.00009815,0.00015773,0.00001055,-0.00000582,-0.00000910,0.0000011
 3,-0.00000060,-0.00000064,-0.00000014,0.00000180,0.00000132,-0.0000022
 6,0.00000064,0.00000070,0.00483150,0.00328768,-0.00246621,0.01140876,-
 0.01028149,0.00925119,-0.07219163,0.09470280,-0.11392816,-0.00096407,-
 0.00304274,0.00017502,-0.00192305,0.00038413,0.00133209,0.07428046,-0.
 10033301,0.10992718,0.00123521,-0.00023055,-0.00110575,0.00005205,0.00
 032171,-0.00006544,-0.00005620,0.00008816,0.00002776,-0.00007468,0.000
 14578,0.00024021,0.00004815,-0.00008119,-0.00007898,0.00002905,-0.0000
 7121,0.00005916,0.00003954,0.00000952,0.00001484,-0.00005073,-0.000010
 42,-0.00005041,-0.00001550,-0.00002215,0.00002439,-0.00004232,-0.00003
 449,0.00002293,-0.00001363,-0.00001782,0.00001033,-0.00002431,0.000009
 18,0.00001283,0.00005309,0.00001789,-0.00004797,0.00000458,-0.00000662
 ,0.00000741,0.00001713,0.00003487,-0.00001131,-0.00000243,0.00000768,0
 .00000071,-0.00000651,0.00000312,0.00000229,-0.00001198,-0.00000289,0.
 00000538,0.00000341,0.00000548,-0.00000118,0.00000671,0.00000402,-0.00
 000712,0.00000429,-0.00000374,-0.00000163,0.00001110,-0.00000966,-0.00
 000665,0.00000565,0.00000001,-0.00000259,0.00003943,-0.00004448,-0.000
 21061,0.00024001,-0.00019604,0.00001972,-0.00002048,0.00002042,0.00007
 025,0.00000707,-0.00000129,-0.00001837,0.00000825,-0.00001095,-0.00000
 690,0.00000527,-0.00000626,-0.00000933,-0.00396649,-0.00409736,0.00261
 591,-0.00055998,-0.00765842,0.02485777,-0.06332861,-0.00836573,0.05865
 318,0.00121659,0.00784919,0.00280578,0.00088912,0.00008406,-0.00242737
 ,0.00626683,0.00490382,-0.01574690,0.05866812,-0.00089100,0.00052265,0
 .00096409,0.00026878,0.00007336,0.00030823,0.00004701,-0.00004832,-0.0
 0005080,0.00006925,-0.00005366,-0.00016331,-0.00009072,0.00008211,0.00
 005283,0.00004651,0.00000587,-0.00000864,-0.00001808,-0.00000298,0.000
 00493,0.00003715,0.00001790,0.00002995,0.00002565,0.00001232,-0.000036
 11,0.00001753,0.00008110,-0.00001094,-0.00000828,0.00000977,-0.0000068
 2,0.00000952,-0.00003826,-0.00000378,-0.00004192,-0.00007802,0.0000561
 8,-0.00002164,0.00000885,-0.00000197,-0.00001089,0.00000303,0.00000375
 ,-0.00000692,0.00000865,-0.00000530,0.00000909,-0.00000427,0.00000390,
 -0.00000229,-0.00000387,0.00000324,-0.00000341,-0.00000320,0.00000185,
 0.00000565,-0.00000120,-0.00000550,0.00000129,0.00000007,0.00000081,0.
 00000024,-0.00000331,0.00000016,-0.00000155,-0.00000085,0.00000126,-0.
 00006166,0.00003712,0.00011765,-0.00020535,0.00009778,-0.00001828,0.00
 003386,-0.00001483,-0.00005182,0.00000028,0.00000260,0.00000941,-0.000
 00557,0.00000424,0.00000555,-0.00000842,0.00000849,0.00000612,-0.00198
 797,-0.00391458,-0.00416519,0.00243555,0.00880316,-0.01190080,-0.01064
 387,-0.07034981,0.08488250,0.00734460,0.00557177,0.00293706,0.00017048
 ,-0.00119129,0.00120387,-0.00446277,-0.00156490,0.01615216,0.00823503,
 0.06203844,0.00029367,-0.00002044,-0.00002462,0.00005347,0.00010934,0.
 00004441,-0.00000232,-0.00000639,0.00001735,0.00000068,0.00001123,-0.0
 0004253,-0.00001377,0.00000271,0.00001324,0.00002484,-0.00000047,0.000
 02094,-0.00000213,0.00000159,0.00000485,0.00001141,-0.00000088,0.00000
 808,0.00000313,0.00000216,-0.00000323,0.00001820,0.00000717,-0.0000045
 0,0.00000546,0.00000209,-0.00000383,-0.00000175,-0.00000687,0.00000061
 ,-0.00000663,-0.00001519,0.00001835,-0.00000725,0.00000030,-0.00000632
 ,-0.00000673,0.00000359,0.00000139,-0.00000179,0.00000333,-0.00000061,
 0.00000134,-0.00000074,0.00000090,-0.00000072,-0.00000126,0.00000184,-
 0.00000122,-0.00000043,-0.00000011,0.00000103,0.00000051,-0.00000086,0
 .00000060,-0.00000057,-0.00000011,-0.00000059,-0.00000059,0.00000103,0
 .00000026,-0.00000003,-0.00000044,-0.00000590,-0.00001317,0.00002785,-
 0.00002996,0.00003709,-0.00009731,0.00000307,0.00000365,-0.00000445,0.
 00000051,0.00000246,0.00000344,0.00000044,-0.00000230,0.00000128,-0.00
 000154,0.00000108,0.00000064,-0.00181853,-0.00086543,-0.00283685,0.003
 93814,0.00466366,-0.01103039,0.06323847,0.08099243,-0.30799724,0.00374
 820,0.00223822,0.00215949,-0.00230916,0.00127718,0.00065471,0.00359107
 ,0.00103606,-0.00510177,-0.07091703,-0.08901026,0.32453446,0.00001482,
 0.00023604,0.00000145,0.00043617,-0.00008716,-0.00002374,-0.00007475,0
 .00008588,-0.00007063,0.00005428,-0.00013986,-0.00001982,-0.00006456,0
 .00009975,0.00001314,-0.00000850,0.00001006,0.00002337,-0.00001444,0.0
 0000341,-0.00000822,0.00000426,-0.00000388,0.00000875,-0.00000151,-0.0
 0006203,-0.00003576,-0.00004160,0.00007494,-0.00005499,0.00001179,0.00
 003402,0.00004846,0.00003129,0.00000120,-0.00001762,-0.00002620,-0.000
 00679,-0.00001354,-0.00000214,0.00002855,0.00000487,-0.00002009,-0.000
 02692,0.00002792,0.00000576,-0.00001897,-0.00000827,0.00000792,-0.0000
 0182,0.00000277,0.00002819,0.00000690,-0.00001818,-0.00000445,-0.00000
 793,0.00000286,-0.00001420,-0.00001230,0.00000875,-0.00000340,0.000003
 60,0.00000259,-0.00001659,0.00002078,0.00000711,-0.00000664,0.00000093
 ,0.00000354,-0.00004265,0.00008959,0.00004695,0.00017461,-0.00076053,-
 0.00028081,0.00004261,-0.00004070,-0.00008081,-0.00000070,-0.00000483,
 0.00000279,-0.00000720,0.00001351,0.00000538,-0.00000756,0.00000574,0.
 00000648,-0.00106595,0.00049223,0.00261081,0.00607012,-0.00695471,0.00
 347691,0.00043892,-0.00116494,0.00100543,-0.15928687,0.11891034,-0.064
 04146,0.00065891,-0.00060267,0.00010091,0.00019673,0.00008905,0.000002
 31,0.00003587,-0.00011486,-0.00017127,0.16963996,0.00040433,0.00025277
 ,-0.00000602,-0.00012969,0.00032204,-0.00012137,-0.00001455,0.00003725
 ,0.00002515,-0.00009665,0.00012743,0.00002611,0.00008981,-0.00012664,-
 0.00001231,0.00001293,-0.00009168,0.00003521,0.00003484,0.00001916,0.0
 0001771,-0.00001385,-0.00000016,-0.00001495,-0.00001876,-0.00002672,0.
 00002706,-0.00004420,-0.00004288,0.00000705,-0.00000131,-0.00000201,0.
 00001591,-0.00000855,0.00001793,0.00000506,0.00005230,0.00004606,-0.00
 005633,0.00000874,-0.00000282,0.00000720,0.00000535,0.00001489,-0.0000
 0020,0.00000480,-0.00000319,0.00000570,-0.00001008,0.00000438,-0.00000
 352,0.00000002,0.00000049,-0.00000188,0.00000246,0.00000408,-0.0000008
 6,-0.00000162,0.00000284,0.00000201,0.00000059,-0.00000184,-0.00000105
 ,0.00000203,-0.00000077,-0.00000201,0.00000395,0.00000073,-0.00000189,
 0.00011229,-0.00006760,-0.00004681,-0.00062448,-0.00063650,-0.00006534
 ,-0.00005490,0.00004678,0.00009188,-0.00000559,0.00000200,-0.00000314,
 0.00000740,-0.00001003,-0.00000564,0.00001476,-0.00001373,-0.00000870,
 -0.00051230,0.00146723,0.00016048,0.00460039,-0.00583829,0.00306920,0.
 00016348,0.00029201,-0.00170557,0.11784509,-0.17203844,0.06700876,0.00
 000707,-0.00044955,0.00085054,-0.00038261,0.00058888,0.00019037,-0.000
 15759,-0.00004991,-0.00014546,-0.12924295,0.18258517,-0.00009286,0.000
 04954,0.00079009,-0.00004607,-0.00010292,0.00033804,0.00009212,-0.0000
 7695,-0.00004824,0.00001723,-0.00000484,-0.00031839,-0.00002971,0.0000
 2175,0.00009800,0.00000747,0.00001435,-0.00001065,-0.00001809,0.000000
 37,-0.00000437,0.00003683,0.00001879,0.00003312,0.00001963,0.00001596,
 -0.00001765,0.00001974,0.00003291,-0.00001191,0.00000386,0.00001839,-0
 .00000411,0.00001010,-0.00002066,-0.00000481,-0.00002751,-0.00003428,0
 .00003382,-0.00001531,0.00000675,-0.00000340,-0.00001789,-0.00000607,0
 .00000811,-0.00000070,0.00000167,0.00000116,0.00000255,-0.00000200,-0.
 00000232,0.00000353,-0.00000125,-0.00000037,-0.00000236,-0.00000169,0.
 00000112,-0.00000037,-0.00000005,0.00000242,-0.00000114,0.00000045,0.0
 0000022,-0.00000426,0.00000159,0.00000273,-0.00000115,-0.00000018,0.00
 000046,0.00001437,-0.00000752,0.00019411,-0.00059923,0.00012298,-0.000
 55852,-0.00001078,0.00001180,-0.00000680,-0.00000872,0.00000430,0.0000
 1692,-0.00000268,0.00000037,0.00000165,0.00000234,0.00000030,0.0000038
 2,0.00460686,-0.00147012,-0.00342229,-0.02063405,0.02204501,-0.0126770
 5,-0.00166618,0.00039274,0.00149526,-0.06196223,0.06538075,-0.08215406
 ,-0.00116058,0.00184909,-0.00193547,0.00108937,-0.00061016,-0.00012810
 ,-0.00011349,-0.00017886,0.00035241,0.06628096,-0.07367947,0.09045632,
 0.00019301,0.00015214,0.00001544,-0.00027128,0.00017871,-0.00001840,0.
 00004701,-0.00003082,0.00006233,-0.00004102,0.00019403,-0.00027475,0.0
 0010040,-0.00018338,0.00008988,0.00000555,-0.00006318,0.00001938,0.000
 03357,0.00001392,0.00000512,-0.00000844,0.00000455,-0.00001112,-0.0000
 3089,-0.00002125,0.00004274,-0.00004430,-0.00008069,-0.00000657,0.0000
 0382,0.00000079,0.00005321,-0.00000065,0.00004136,0.00000423,0.0000461
 4,0.00008813,-0.00007393,0.00003695,-0.00000896,0.00001174,0.00000319,
 -0.00001676,-0.00000360,0.00000972,-0.00000513,0.00001109,-0.00001313,
 0.00000548,-0.00000833,0.00000607,0.00000296,-0.00000049,0.00000169,0.
 00000225,-0.00000288,-0.00000960,0.00000459,0.00001187,-0.00000223,-0.
 00000069,-0.00000202,-0.00000595,0.00000642,0.00000545,0.00000131,0.00
 000137,-0.00000241,0.00016313,-0.00020943,0.00017745,-0.00108416,0.000
 26859,-0.00140958,-0.00008660,0.00009051,0.00008818,-0.00000899,0.0000
 2218,0.00001932,0.00001605,-0.00002630,0.00000155,0.00001547,-0.000019
 32,-0.00000884,0.00031993,-0.00007657,-0.00067109,-0.00135145,0.008240
 97,0.00761204,0.00025231,-0.00071171,0.00156823,-0.04621188,-0.0024056
 9,-0.00432425,-0.00018028,-0.00010236,0.00029241,0.00059083,0.00051855
 ,0.00027995,-0.00094775,-0.00084686,-0.00010856,0.00075533,0.01674393,
 0.01380121,0.04763855,0.00039583,-0.00013020,0.00040039,-0.00005693,0.
 00002845,0.00021959,0.00003662,-0.00001497,0.00001598,0.00001118,0.000
 03428,-0.00018502,0.00000893,-0.00001450,0.00006791,-0.00002914,-0.000
 03204,0.00000041,0.00000009,0.00001149,-0.00000284,0.00001217,0.000005
 53,0.00001657,-0.00001379,-0.00000349,0.00000333,-0.00000812,-0.000028
 78,-0.00001518,0.00000591,0.00000511,0.00003701,0.00001386,0.00002766,
 -0.00000770,-0.00000359,0.00005170,-0.00002288,0.00002919,-0.00000551,
 0.00000568,0.00000294,-0.00003781,0.00000091,0.00000784,-0.00000774,0.
 00000459,-0.00000211,0.00000149,-0.00000467,0.00000981,0.00000350,-0.0
 0000178,-0.00000053,-0.00000245,-0.00000200,-0.00001059,-0.00000011,0.
 00001234,-0.00000422,0.00000241,-0.00000064,-0.00001007,0.00001057,0.0
 0000815,-0.00000399,0.00000059,0.,-0.00005317,-0.00001525,0.00013396,-
 0.00012886,-0.00010312,0.00012434,-0.00000767,0.00000825,-0.00006803,-
 0.00000474,0.00000974,0.00002326,0.00000119,-0.00000298,0.00000790,-0.
 00000301,-0.00000062,0.00000814,0.00109052,-0.00029589,-0.00019756,0.0
 0155778,0.01065070,0.00477925,-0.00073734,-0.00006857,0.00079638,-0.00
 301267,-0.21341397,-0.12253532,-0.00038341,0.00014152,-0.00012057,-0.0
 0014575,0.00018154,0.00003869,-0.00055817,-0.00029135,-0.00018002,-0.0
 0183630,-0.01650577,-0.01253447,0.00353378,0.23027830,-0.00033120,0.00
 094713,0.00119232,-0.00042480,0.00042337,0.00008191,0.00005186,-0.0000
 6624,0.00002848,-0.00012356,0.00014087,-0.00021629,0.00008649,-0.00011
 422,0.00005657,0.00004326,-0.00010864,0.00000983,0.00003578,0.00002048
 ,0.00002529,0.00000767,0.00000885,0.00000835,-0.00001775,-0.00000256,0
 .00004614,-0.00000659,-0.00006947,0.00000059,0.00001397,0.00000065,0.0
 0000260,-0.00000599,0.00002239,0.00000508,0.00003850,0.00005813,-0.000
 03428,0.00000828,-0.00000940,-0.00000525,-0.00000626,0.00000311,0.0000
 0044,0.00000687,-0.00000465,0.00001052,-0.00001209,0.00000429,-0.00000
 801,0.00000223,0.00000193,-0.00000058,0.00000140,0.00000329,-0.0000020
 7,-0.00000410,0.00000438,0.00000719,-0.00000149,-0.00000130,-0.0000017
 4,-0.00000103,0.00000163,0.00000163,0.00000255,0.00000089,-0.00000247,
 0.00016467,-0.00009538,0.00007337,-0.00167628,-0.00018946,-0.00083001,
 -0.00006931,0.00004805,0.00012209,-0.00000565,-0.00000047,0.00000141,0
 .00000488,-0.00000928,-0.00001090,0.00002005,-0.00001456,-0.00001365,0
 .00262381,-0.00211392,-0.00052225,0.00188368,-0.02413305,-0.01960648,-
 0.00098181,0.00229164,-0.00332328,-0.00421683,-0.12455241,-0.13968382,
 -0.00062507,0.00068180,0.00052298,-0.00053957,-0.00077370,-0.00028740,
 0.00200626,0.00108878,0.00049783,0.00117583,0.00989646,0.00780053,0.00
 160875,0.13587692,0.15348490,0.00047653,0.00047250,-0.00046390,0.00037
 319,0.00007976,-0.00019323,-0.00007449,0.00010598,-0.00005829,-0.00001
 269,-0.00005934,0.00009500,0.00001411,0.00001571,-0.00002826,-0.000006
 17,-0.00005868,0.00003655,0.00001264,0.00001051,0.00000832,-0.00001678
 ,-0.00000773,-0.00001042,-0.00004373,0.00005919,0.00003348,0.00005987,
 -0.00011985,0.00004332,-0.00000112,0.00000826,0.00003038,0.00002195,0.
 00003021,-0.00002344,-0.00005090,0.00006866,-0.00002642,0.00004418,-0.
 00000864,0.00002481,0.00003395,-0.00004665,-0.00002088,-0.00000605,-0.
 00000141,0.00000349,-0.00000199,0.00000286,-0.00000038,-0.00000828,0.0
 0000600,-0.00000104,0.00000648,0.00000275,0.00000123,0.00000192,0.0000
 0627,-0.00000332,-0.00000175,0.00000278,0.00000149,0.00000186,-0.00000
 787,-0.00000188,-0.00000074,0.00000014,0.00000139,0.00001271,0.0000478
 8,-0.00005392,0.00016428,-0.00028330,-0.00045247,-0.00000066,-0.000015
 22,0.00000832,-0.00000447,-0.00000856,-0.00000742,-0.00000114,0.000007
 36,-0.00000441,0.00000359,-0.00000356,-0.00000028,-0.00186123,0.001511
 15,0.00039854,-0.00652237,-0.00142802,0.00407996,0.00084818,-0.0015222
 1,0.00107680,-0.26362985,-0.09225371,0.00381680,0.00059857,-0.00041941
 ,-0.00003956,-0.00018150,-0.00059377,-0.00026591,0.00023510,0.00067660
 ,0.00047289,-0.01789755,-0.00879687,0.00040718,0.00005856,0.00029654,-
 0.00073742,0.28735581,0.00063352,0.00013234,-0.00009595,0.00050061,-0.
 00014742,-0.00005822,-0.00009763,0.00011234,-0.00009256,0.00005843,-0.
 00021395,0.00010196,-0.00010461,0.00017232,-0.00003210,0.00002328,0.00
 004139,0.00003955,-0.00002470,0.00000139,-0.00001796,0.00000072,-0.000
 00489,0.00000231,-0.00000086,-0.00011261,-0.00005316,-0.00008139,0.000
 15592,-0.00007665,0.00001652,0.00003820,0.00003320,0.00004231,-0.00002
 297,-0.00002744,-0.00001951,-0.00004795,0.00000751,-0.00003198,0.00003
 353,0.00000332,-0.00002504,-0.00001035,0.00003996,0.00000047,-0.000021
 24,-0.00001412,0.00001203,-0.00000294,0.00000654,0.00002877,0.00000567
 ,-0.00002477,-0.00000326,-0.00000727,0.00000623,-0.00000891,-0.0000160
 7,0.00000173,-0.00000289,0.00000466,0.00000451,-0.00001532,0.00001721,
 0.00000271,-0.00000569,0.00000018,0.00000536,-0.00000665,0.00015909,-0
 .00001996,0.00038330,-0.00233672,0.00053520,0.00006322,-0.00006853,-0.
 00009778,-0.00000648,-0.00002087,-0.00000619,-0.00001616,0.00003099,0.
 00000292,-0.00000666,0.00000920,0.00001128,-0.00186075,0.00091741,0.00
 070310,-0.00536593,-0.00211060,-0.00006155,0.00049459,-0.00040714,0.00
 041971,-0.09286975,-0.08736541,0.00375962,0.00063558,-0.00014984,-0.00
 041555,0.00001256,0.00022148,0.00003463,-0.00015291,0.00022534,-0.0001
 2537,0.02088366,0.01007640,-0.00125837,-0.02530612,-0.01047770,0.00073
 369,0.10222368,0.09118939,-0.00098974,0.00021780,0.00026078,-0.0001171
 8,0.00012859,0.00001227,0.00000109,-0.00005029,0.00001880,-0.00003402,
 0.00000239,0.00014221,-0.00000146,-0.00000551,-0.00005253,-0.00001420,
 -0.00002968,-0.00003000,0.00000302,-0.00001712,0.00002007,0.00000906,0
 .00000648,-0.00000360,0.00003835,0.00022022,-0.00000609,0.00015015,-0.
 00010902,0.00020256,-0.00005198,-0.00004079,-0.00020431,-0.00002030,-0
 .00006559,-0.00000144,-0.00008791,-0.00007770,0.00006532,-0.00002791,-
 0.00000714,0.00001144,0.00008742,0.00001653,-0.00005674,-0.00002544,0.
 00004073,-0.00000128,0.00000043,-0.00000249,0.00000352,-0.00006236,-0.
 00001046,0.00002642,0.00000731,0.00001148,0.00000039,0.00004058,0.0000
 2589,-0.00003106,0.00000871,-0.00000509,-0.00000198,0.00003984,-0.0000
 5511,-0.00002147,0.00000863,-0.00000237,-0.00000226,0.00000832,0.00002
 835,-0.00011752,-0.00019853,0.00082454,0.00054705,0.00000677,-0.000003
 91,0.00004924,-0.00000490,-0.00001258,-0.00001726,-0.00000130,0.000002
 73,-0.00001006,0.00000469,0.00000022,0.00000082,0.00153501,-0.00101391
 ,0.00017438,0.03165307,0.01152453,-0.00152293,-0.00050414,0.00209345,-
 0.00346462,0.00610925,0.00411784,-0.04631717,-0.00062946,-0.00003334,0
 .00005362,0.00071427,0.00073592,0.00043418,-0.00062807,-0.00221593,-0.
 00120991,-0.01002524,-0.00555933,-0.00032180,-0.01885475,-0.00670301,0
 .00056839,-0.00814709,-0.00397735,0.05080258||-0.00000011,0.00000016,0
 .00000044,0.00000024,0.00000051,0.00000094,0.00000038,0.00000067,0.000
 00122,0.00000029,-0.00000008,0.00000123,0.00000039,0.00000020,0.000001
 83,0.,0.00000099,0.00000022,0.00000038,0.00000147,0.00000083,0.0000002
 3,0.00000152,0.00000018,0.00000014,0.00000096,-0.00000031,-0.00000008,
 0.00000082,-0.00000113,-0.00000016,0.00000091,-0.00000131,-0.00000007,
 0.00000070,-0.00000018,-0.00000029,0.00000042,-0.00000140,-0.00000039,
 0.00000037,-0.00000202,-0.00000015,0.00000036,-0.00000089,0.00000010,0
 .00000046,0.00000040,0.00000031,0.00000062,0.00000101,-0.00000027,0.00
 000008,-0.00000114,-0.00000038,-0.00000008,-0.00000168,0.00000009,0.00
 000014,0.00000025,0.00000019,0.00000014,0.00000072,-0.00000007,0.00000
 015,-0.00000053,-0.00000014,-0.00000022,-0.00000062,0.00000015,-0.0000
 0083,0.00000108,-0.00000006,-0.00000058,0.00000021,0.00000009,-0.00000
 124,0.00000147,0.00000005,-0.00000188,0.00000119,0.00000029,-0.0000012
 9,0.00000204,0.00000016,-0.00000104,0.00000129,0.00000041,0.00000024,-
 0.00000053,-0.00000014,-0.00000038,-0.00000038,-0.00000012,-0.00000010
 ,-0.00000070,-0.00000022,-0.00000112,-0.00000060,0.00000008,0.00000076
 ,0.00000061,-0.00000029,-0.00000042,-0.00000104,-0.00000005,0.00000047
 ,-0.00000043,-0.00000041,-0.00000143,-0.00000108,-0.00000021,-0.000001
 41,-0.00000017,-0.00000037,-0.00000098,-0.00000100|||@


 WHERE THERE IS MUCH DESIRE TO LEARN, THERE OF NECESSITY WILL BE
 MUCH ARGUING, MUCH WRITING, MANY OPINIONS; FOR OPINION IN GOOD MEN
 IS BUT KNOWLEDGE IN THE MAKING. -- JOHN MILTON.
 Job cpu time:       0 days  0 hours 26 minutes 30.0 seconds.
 File lengths (MBytes):  RWF=    641 Int=      0 D2E=      0 Chk=     14 Scr=      1
 Normal termination of Gaussian 09 at Thu Feb 08 13:41:45 2024.
