 Entering Link 1 = C:\G09W\l1.exe PID=    192096.
  
 Copyright (c) 1988,1990,1992,1993,1995,1998,2003,2009,2013,
            Gaussian, Inc.  All Rights Reserved.
  
 This is part of the Gaussian(R) 09 program.  It is based on
 the Gaussian(R) 03 system (copyright 2003, Gaussian, Inc.),
 the Gaussian(R) 98 system (copyright 1998, Gaussian, Inc.),
 the Gaussian(R) 94 system (copyright 1995, Gaussian, Inc.),
 the Gaussian 92(TM) system (copyright 1992, Gaussian, Inc.),
 the Gaussian 90(TM) system (copyright 1990, Gaussian, Inc.),
 the Gaussian 88(TM) system (copyright 1988, Gaussian, Inc.),
 the Gaussian 86(TM) system (copyright 1986, Carnegie Mellon
 University), and the Gaussian 82(TM) system (copyright 1983,
 Carnegie Mellon University). Gaussian is a federally registered
 trademark of Gaussian, Inc.
  
 This software contains proprietary and confidential information,
 including trade secrets, belonging to Gaussian, Inc.
  
 This software is provided under written license and may be
 used, copied, transmitted, or stored only in accord with that
 written license.
  
 The following legend is applicable only to US Government
 contracts under FAR:
  
                    RESTRICTED RIGHTS LEGEND
  
 Use, reproduction and disclosure by the US Government is
 subject to restrictions as set forth in subparagraphs (a)
 and (c) of the Commercial Computer Software - Restricted
 Rights clause in FAR 52.227-19.
  
 Gaussian, Inc.
 340 Quinnipiac St., Bldg. 40, Wallingford CT 06492
  
  
 ---------------------------------------------------------------
 Warning -- This program may not be used in any manner that
 competes with the business of Gaussian, Inc. or will provide
 assistance to any competitor of Gaussian, Inc.  The licensee
 of this program is prohibited from giving any competitor of
 Gaussian, Inc. access to this program.  By using this program,
 the user acknowledges that Gaussian, Inc. is engaged in the
 business of creating and licensing software in the field of
 computational chemistry and represents and warrants to the
 licensee that it is not a competitor of Gaussian, Inc. and that
 it will not use this program in any manner prohibited above.
 ---------------------------------------------------------------
  

 Cite this work as:
 Gaussian 09, Revision D.01,
 M. J. Frisch, G. W. Trucks, H. B. Schlegel, G. E. Scuseria, 
 M. A. Robb, J. R. Cheeseman, G. Scalmani, V. Barone, B. Mennucci, 
 G. A. Petersson, H. Nakatsuji, M. Caricato, X. Li, H. P. Hratchian, 
 A. F. Izmaylov, J. Bloino, G. Zheng, J. L. Sonnenberg, M. Hada, 
 M. Ehara, K. Toyota, R. Fukuda, J. Hasegawa, M. Ishida, T. Nakajima, 
 Y. Honda, O. Kitao, H. Nakai, T. Vreven, J. A. Montgomery, Jr., 
 J. E. Peralta, F. Ogliaro, M. Bearpark, J. J. Heyd, E. Brothers, 
 K. N. Kudin, V. N. Staroverov, T. Keith, R. Kobayashi, J. Normand, 
 K. Raghavachari, A. Rendell, J. C. Burant, S. S. Iyengar, J. Tomasi, 
 M. Cossi, N. Rega, J. M. Millam, M. Klene, J. E. Knox, J. B. Cross, 
 V. Bakken, C. Adamo, J. Jaramillo, R. Gomperts, R. E. Stratmann, 
 O. Yazyev, A. J. Austin, R. Cammi, C. Pomelli, J. W. Ochterski, 
 R. L. Martin, K. Morokuma, V. G. Zakrzewski, G. A. Voth, 
 P. Salvador, J. J. Dannenberg, S. Dapprich, A. D. Daniels, 
 O. Farkas, J. B. Foresman, J. V. Ortiz, J. Cioslowski, 
 and D. J. Fox, Gaussian, Inc., Wallingford CT, 2013.
 
 ******************************************
 Gaussian 09:  IA32W-G09RevD.01 24-Apr-2013
                08-Feb-2024 
 ******************************************
 %nprocshared=8
 Will use up to    8 processors via shared memory.
 %chk=D:\backups\Depo1\ChemChem\3\out\MATrp\MATrp_D11\MATrp_D11.chk
 ---------------------------------------------------------------
 #p opt=tight freq b3lyp/6-31g(d,p) guess=save geom=connectivity
 ---------------------------------------------------------------
 1/7=10,14=-1,18=20,19=15,26=3,38=1,57=2/1,3;
 2/9=110,12=2,17=6,18=5,40=1/2;
 3/5=1,6=6,7=101,11=2,16=1,25=1,30=1,71=1,74=-5/1,2,3;
 4//1;
 5/5=2,38=5/2;
 6/7=2,8=2,9=2,10=2,28=1/1;
 7//1,2,3,16;
 1/7=10,14=-1,18=20,19=15,26=3/3(2);
 2/9=110/2;
 99//99;
 2/9=110/2;
 3/5=1,6=6,7=101,11=2,16=1,25=1,30=1,71=1,74=-5/1,2,3;
 4/5=5,16=3,69=1/1;
 5/5=2,38=5/2;
 7//1,2,3,16;
 1/7=10,14=-1,18=20,19=15,26=3/3(-5);
 2/9=110/2;
 6/7=2,8=2,9=2,10=2,19=2,28=1/1;
 99/9=1/99;
 Leave Link    1 at Thu Feb 08 17:23:08 2024, MaxMem=           0 cpu:         0.0
 (Enter C:\G09W\l101.exe)
 --------------------------------
 MATrp OptFreq tight B3LYP/6-31Gd
 --------------------------------
 Symbolic Z-matrix:
 Charge =  0 Multiplicity = 1
 N                     1.53086  -0.71117  -0.9283 
 C                     0.54907  -0.23196  -1.91184 
 H                     0.92083   0.65286  -2.38491 
 C                    -0.7784    0.08616  -1.19895 
 O                    -1.53463   0.98556  -1.64926 
 C                     0.31295  -1.32153  -2.97423 
 H                    -0.40169  -0.97273  -3.69014 
 H                     1.23528  -1.54257  -3.46955 
 C                    -0.22211  -2.59501  -2.29336 
 C                     0.52217  -3.61725  -1.79941 
 H                     1.58982  -3.68717  -1.81118 
 C                    -1.56794  -2.91431  -2.06835 
 N                    -0.41018  -4.61136  -1.24484 
 H                    -0.16579  -5.47756  -0.80898 
 C                    -1.6452   -4.13765  -1.43386 
 C                    -2.70672  -2.18394  -2.39407 
 H                    -2.63392  -1.23654  -2.88603 
 C                    -2.86535  -4.70821  -1.08487 
 H                    -2.91144  -5.65742  -0.59317 
 C                    -3.96061  -2.73432  -2.05398 
 H                    -4.85732  -2.20009  -2.28937 
 C                    -4.03972  -3.99309  -1.40112 
 H                    -4.99564  -4.40155  -1.14759 
 O                    -1.15171  -0.64048  -0.02527 
 H                     1.22341  -1.20315  -0.1138 
 C                    -2.5774   -0.71829   0.05386 
 H                    -2.85673  -1.262     0.93207 
 H                    -2.98645   0.26933   0.10064 
 H                    -2.9558   -1.22041  -0.81193 
 C                     2.83558  -0.48911  -1.12284 
 C                     2.97756  -2.02077  -1.04907 
 C                     3.51917  -2.70189  -2.08797 
 C                     2.50407  -2.77844   0.20526 
 O                     3.22248   0.13001  -2.14781 
 H                     3.61782  -3.7661   -2.03671 
 H                     3.84815  -2.17546  -2.95948 
 H                     3.1006   -3.65679   0.33778 
 H                     2.60442  -2.14642   1.0628 
 H                     1.47821  -3.05855   0.08672 
 
 NAtoms=     39 NQM=       39 NQMF=       0 NMMI=      0 NMMIF=      0
                NMic=       0 NMicF=      0.
                    Isotopes and Nuclear Properties:
 (Nuclear quadrupole moments (NQMom) in fm**2, nuclear magnetic moments (NMagM)
  in nuclear magnetons)

  Atom         1           2           3           4           5           6           7           8           9          10
 IAtWgt=          14          12           1          12          16          12           1           1          12          12
 AtmWgt=  14.0030740  12.0000000   1.0078250  12.0000000  15.9949146  12.0000000   1.0078250   1.0078250  12.0000000  12.0000000
 NucSpn=           2           0           1           0           0           0           1           1           0           0
 AtZEff=   0.0000000   0.0000000   0.0000000   0.0000000   0.0000000   0.0000000   0.0000000   0.0000000   0.0000000   0.0000000
 NQMom=    2.0440000   0.0000000   0.0000000   0.0000000   0.0000000   0.0000000   0.0000000   0.0000000   0.0000000   0.0000000
 NMagM=    0.4037610   0.0000000   2.7928460   0.0000000   0.0000000   0.0000000   2.7928460   2.7928460   0.0000000   0.0000000
 AtZNuc=   7.0000000   6.0000000   1.0000000   6.0000000   8.0000000   6.0000000   1.0000000   1.0000000   6.0000000   6.0000000

  Atom        11          12          13          14          15          16          17          18          19          20
 IAtWgt=           1          12          14           1          12          12           1          12           1          12
 AtmWgt=   1.0078250  12.0000000  14.0030740   1.0078250  12.0000000  12.0000000   1.0078250  12.0000000   1.0078250  12.0000000
 NucSpn=           1           0           2           1           0           0           1           0           1           0
 AtZEff=   0.0000000   0.0000000   0.0000000   0.0000000   0.0000000   0.0000000   0.0000000   0.0000000   0.0000000   0.0000000
 NQMom=    0.0000000   0.0000000   2.0440000   0.0000000   0.0000000   0.0000000   0.0000000   0.0000000   0.0000000   0.0000000
 NMagM=    2.7928460   0.0000000   0.4037610   2.7928460   0.0000000   0.0000000   2.7928460   0.0000000   2.7928460   0.0000000
 AtZNuc=   1.0000000   6.0000000   7.0000000   1.0000000   6.0000000   6.0000000   1.0000000   6.0000000   1.0000000   6.0000000

  Atom        21          22          23          24          25          26          27          28          29          30
 IAtWgt=           1          12           1          16           1          12           1           1           1          12
 AtmWgt=   1.0078250  12.0000000   1.0078250  15.9949146   1.0078250  12.0000000   1.0078250   1.0078250   1.0078250  12.0000000
 NucSpn=           1           0           1           0           1           0           1           1           1           0
 AtZEff=   0.0000000   0.0000000   0.0000000   0.0000000   0.0000000   0.0000000   0.0000000   0.0000000   0.0000000   0.0000000
 NQMom=    0.0000000   0.0000000   0.0000000   0.0000000   0.0000000   0.0000000   0.0000000   0.0000000   0.0000000   0.0000000
 NMagM=    2.7928460   0.0000000   2.7928460   0.0000000   2.7928460   0.0000000   2.7928460   2.7928460   2.7928460   0.0000000
 AtZNuc=   1.0000000   6.0000000   1.0000000   8.0000000   1.0000000   6.0000000   1.0000000   1.0000000   1.0000000   6.0000000

  Atom        31          32          33          34          35          36          37          38          39
 IAtWgt=          12          12          12          16           1           1           1           1           1
 AtmWgt=  12.0000000  12.0000000  12.0000000  15.9949146   1.0078250   1.0078250   1.0078250   1.0078250   1.0078250
 NucSpn=           0           0           0           0           1           1           1           1           1
 AtZEff=   0.0000000   0.0000000   0.0000000   0.0000000   0.0000000   0.0000000   0.0000000   0.0000000   0.0000000
 NQMom=    0.0000000   0.0000000   0.0000000   0.0000000   0.0000000   0.0000000   0.0000000   0.0000000   0.0000000
 NMagM=    0.0000000   0.0000000   0.0000000   0.0000000   2.7928460   2.7928460   2.7928460   2.7928460   2.7928460
 AtZNuc=   6.0000000   6.0000000   6.0000000   8.0000000   1.0000000   1.0000000   1.0000000   1.0000000   1.0000000
 Leave Link  101 at Thu Feb 08 17:23:08 2024, MaxMem=    33554432 cpu:         0.0
 (Enter C:\G09W\l103.exe)

 GradGradGradGradGradGradGradGradGradGradGradGradGradGradGradGradGradGrad
 Berny optimization.
 Initialization pass.
                           ----------------------------
                           !    Initial Parameters    !
                           ! (Angstroms and Degrees)  !
 --------------------------                            --------------------------
 ! Name  Definition              Value          Derivative Info.                !
 --------------------------------------------------------------------------------
 ! R1    R(1,2)                  1.47           estimate D2E/DX2                !
 ! R2    R(1,25)                 1.0            estimate D2E/DX2                !
 ! R3    R(1,30)                 1.3377         estimate D2E/DX2                !
 ! R4    R(2,3)                  1.07           estimate D2E/DX2                !
 ! R5    R(2,4)                  1.54           estimate D2E/DX2                !
 ! R6    R(2,6)                  1.54           estimate D2E/DX2                !
 ! R7    R(4,5)                  1.2584         estimate D2E/DX2                !
 ! R8    R(4,24)                 1.43           estimate D2E/DX2                !
 ! R9    R(6,7)                  1.07           estimate D2E/DX2                !
 ! R10   R(6,8)                  1.07           estimate D2E/DX2                !
 ! R11   R(6,9)                  1.54           estimate D2E/DX2                !
 ! R12   R(9,10)                 1.3575         estimate D2E/DX2                !
 ! R13   R(9,12)                 1.4014         estimate D2E/DX2                !
 ! R14   R(10,11)                1.07           estimate D2E/DX2                !
 ! R15   R(10,13)                1.4714         estimate D2E/DX2                !
 ! R16   R(12,15)                1.3803         estimate D2E/DX2                !
 ! R17   R(12,16)                1.3915         estimate D2E/DX2                !
 ! R18   R(13,14)                1.0            estimate D2E/DX2                !
 ! R19   R(13,15)                1.3362         estimate D2E/DX2                !
 ! R20   R(15,18)                1.3914         estimate D2E/DX2                !
 ! R21   R(16,17)                1.07           estimate D2E/DX2                !
 ! R22   R(16,20)                1.411          estimate D2E/DX2                !
 ! R23   R(18,19)                1.07           estimate D2E/DX2                !
 ! R24   R(18,22)                1.4109         estimate D2E/DX2                !
 ! R25   R(20,21)                1.07           estimate D2E/DX2                !
 ! R26   R(20,22)                1.4202         estimate D2E/DX2                !
 ! R27   R(22,23)                1.07           estimate D2E/DX2                !
 ! R28   R(24,26)                1.43           estimate D2E/DX2                !
 ! R29   R(26,27)                1.07           estimate D2E/DX2                !
 ! R30   R(26,28)                1.07           estimate D2E/DX2                !
 ! R31   R(26,29)                1.07           estimate D2E/DX2                !
 ! R32   R(30,31)                1.54           estimate D2E/DX2                !
 ! R33   R(30,34)                1.2584         estimate D2E/DX2                !
 ! R34   R(31,32)                1.3552         estimate D2E/DX2                !
 ! R35   R(31,33)                1.54           estimate D2E/DX2                !
 ! R36   R(32,35)                1.07           estimate D2E/DX2                !
 ! R37   R(32,36)                1.07           estimate D2E/DX2                !
 ! R38   R(33,37)                1.07           estimate D2E/DX2                !
 ! R39   R(33,38)                1.07           estimate D2E/DX2                !
 ! R40   R(33,39)                1.07           estimate D2E/DX2                !
 ! A1    A(2,1,25)             120.0            estimate D2E/DX2                !
 ! A2    A(2,1,30)             120.0            estimate D2E/DX2                !
 ! A3    A(25,1,30)            120.0            estimate D2E/DX2                !
 ! A4    A(1,2,3)              109.4712         estimate D2E/DX2                !
 ! A5    A(1,2,4)              109.4712         estimate D2E/DX2                !
 ! A6    A(1,2,6)              109.4712         estimate D2E/DX2                !
 ! A7    A(3,2,4)              109.4712         estimate D2E/DX2                !
 ! A8    A(3,2,6)              109.4712         estimate D2E/DX2                !
 ! A9    A(4,2,6)              109.4712         estimate D2E/DX2                !
 ! A10   A(2,4,5)              120.0            estimate D2E/DX2                !
 ! A11   A(2,4,24)             120.0            estimate D2E/DX2                !
 ! A12   A(5,4,24)             120.0            estimate D2E/DX2                !
 ! A13   A(2,6,7)              109.4712         estimate D2E/DX2                !
 ! A14   A(2,6,8)              109.4712         estimate D2E/DX2                !
 ! A15   A(2,6,9)              109.4712         estimate D2E/DX2                !
 ! A16   A(7,6,8)              109.4712         estimate D2E/DX2                !
 ! A17   A(7,6,9)              109.4712         estimate D2E/DX2                !
 ! A18   A(8,6,9)              109.4712         estimate D2E/DX2                !
 ! A19   A(6,9,10)             126.3754         estimate D2E/DX2                !
 ! A20   A(6,9,12)             126.3754         estimate D2E/DX2                !
 ! A21   A(10,9,12)            107.2492         estimate D2E/DX2                !
 ! A22   A(9,10,11)            126.3167         estimate D2E/DX2                !
 ! A23   A(9,10,13)            107.3666         estimate D2E/DX2                !
 ! A24   A(11,10,13)           126.3167         estimate D2E/DX2                !
 ! A25   A(9,12,15)            109.239          estimate D2E/DX2                !
 ! A26   A(9,12,16)            128.9585         estimate D2E/DX2                !
 ! A27   A(15,12,16)           121.8024         estimate D2E/DX2                !
 ! A28   A(10,13,14)           126.4864         estimate D2E/DX2                !
 ! A29   A(10,13,15)           107.0272         estimate D2E/DX2                !
 ! A30   A(14,13,15)           126.4864         estimate D2E/DX2                !
 ! A31   A(12,15,13)           109.118          estimate D2E/DX2                !
 ! A32   A(12,15,18)           121.8576         estimate D2E/DX2                !
 ! A33   A(13,15,18)           129.0244         estimate D2E/DX2                !
 ! A34   A(12,16,17)           121.1091         estimate D2E/DX2                !
 ! A35   A(12,16,20)           117.7818         estimate D2E/DX2                !
 ! A36   A(17,16,20)           121.1091         estimate D2E/DX2                !
 ! A37   A(15,18,19)           121.1173         estimate D2E/DX2                !
 ! A38   A(15,18,22)           117.7654         estimate D2E/DX2                !
 ! A39   A(19,18,22)           121.1173         estimate D2E/DX2                !
 ! A40   A(16,20,21)           119.7998         estimate D2E/DX2                !
 ! A41   A(16,20,22)           120.4005         estimate D2E/DX2                !
 ! A42   A(21,20,22)           119.7998         estimate D2E/DX2                !
 ! A43   A(18,22,20)           120.3923         estimate D2E/DX2                !
 ! A44   A(18,22,23)           119.8039         estimate D2E/DX2                !
 ! A45   A(20,22,23)           119.8039         estimate D2E/DX2                !
 ! A46   A(4,24,26)            109.4712         estimate D2E/DX2                !
 ! A47   A(24,26,27)           109.4712         estimate D2E/DX2                !
 ! A48   A(24,26,28)           109.4712         estimate D2E/DX2                !
 ! A49   A(24,26,29)           109.4712         estimate D2E/DX2                !
 ! A50   A(27,26,28)           109.4712         estimate D2E/DX2                !
 ! A51   A(27,26,29)           109.4712         estimate D2E/DX2                !
 ! A52   A(28,26,29)           109.4712         estimate D2E/DX2                !
 ! A53   A(1,30,31)             85.288          estimate D2E/DX2                !
 ! A54   A(1,30,34)            120.0            estimate D2E/DX2                !
 ! A55   A(31,30,34)           120.0            estimate D2E/DX2                !
 ! A56   A(30,31,32)           120.0            estimate D2E/DX2                !
 ! A57   A(30,31,33)           120.0            estimate D2E/DX2                !
 ! A58   A(32,31,33)           120.0            estimate D2E/DX2                !
 ! A59   A(31,32,35)           120.0            estimate D2E/DX2                !
 ! A60   A(31,32,36)           120.0            estimate D2E/DX2                !
 ! A61   A(35,32,36)           120.0            estimate D2E/DX2                !
 ! A62   A(31,33,37)           109.4712         estimate D2E/DX2                !
 ! A63   A(31,33,38)           109.4712         estimate D2E/DX2                !
 ! A64   A(31,33,39)           109.4712         estimate D2E/DX2                !
 ! A65   A(37,33,38)           109.4712         estimate D2E/DX2                !
 ! A66   A(37,33,39)           109.4712         estimate D2E/DX2                !
 ! A67   A(38,33,39)           109.4712         estimate D2E/DX2                !
 ! D1    D(25,1,2,3)           150.0            estimate D2E/DX2                !
 ! D2    D(25,1,2,4)            30.0            estimate D2E/DX2                !
 ! D3    D(25,1,2,6)           -90.0            estimate D2E/DX2                !
 ! D4    D(30,1,2,3)           -30.0            estimate D2E/DX2                !
 ! D5    D(30,1,2,4)          -150.0            estimate D2E/DX2                !
 ! D6    D(30,1,2,6)            90.0            estimate D2E/DX2                !
 ! D7    D(2,1,30,31)         -122.1216         estimate D2E/DX2                !
 ! D8    D(2,1,30,34)            0.0002         estimate D2E/DX2                !
 ! D9    D(25,1,30,31)          57.8784         estimate D2E/DX2                !
 ! D10   D(25,1,30,34)        -179.9999         estimate D2E/DX2                !
 ! D11   D(1,2,4,5)            150.0            estimate D2E/DX2                !
 ! D12   D(1,2,4,24)           -30.0            estimate D2E/DX2                !
 ! D13   D(3,2,4,5)             30.0            estimate D2E/DX2                !
 ! D14   D(3,2,4,24)          -150.0            estimate D2E/DX2                !
 ! D15   D(6,2,4,5)            -90.0            estimate D2E/DX2                !
 ! D16   D(6,2,4,24)            90.0            estimate D2E/DX2                !
 ! D17   D(1,2,6,7)            180.0            estimate D2E/DX2                !
 ! D18   D(1,2,6,8)            -60.0            estimate D2E/DX2                !
 ! D19   D(1,2,6,9)             60.0            estimate D2E/DX2                !
 ! D20   D(3,2,6,7)            -60.0            estimate D2E/DX2                !
 ! D21   D(3,2,6,8)             60.0            estimate D2E/DX2                !
 ! D22   D(3,2,6,9)            180.0            estimate D2E/DX2                !
 ! D23   D(4,2,6,7)             60.0            estimate D2E/DX2                !
 ! D24   D(4,2,6,8)           -180.0            estimate D2E/DX2                !
 ! D25   D(4,2,6,9)            -60.0            estimate D2E/DX2                !
 ! D26   D(2,4,24,26)         -150.0            estimate D2E/DX2                !
 ! D27   D(5,4,24,26)           30.0            estimate D2E/DX2                !
 ! D28   D(2,6,9,10)           -90.0            estimate D2E/DX2                !
 ! D29   D(2,6,9,12)            90.0            estimate D2E/DX2                !
 ! D30   D(7,6,9,10)           150.0            estimate D2E/DX2                !
 ! D31   D(7,6,9,12)           -30.0            estimate D2E/DX2                !
 ! D32   D(8,6,9,10)            30.0            estimate D2E/DX2                !
 ! D33   D(8,6,9,12)          -150.0            estimate D2E/DX2                !
 ! D34   D(6,9,10,11)           -0.0002         estimate D2E/DX2                !
 ! D35   D(6,9,10,13)          180.0            estimate D2E/DX2                !
 ! D36   D(12,9,10,11)         179.9998         estimate D2E/DX2                !
 ! D37   D(12,9,10,13)           0.0            estimate D2E/DX2                !
 ! D38   D(6,9,12,15)         -180.0            estimate D2E/DX2                !
 ! D39   D(6,9,12,16)           -0.0002         estimate D2E/DX2                !
 ! D40   D(10,9,12,15)           0.0            estimate D2E/DX2                !
 ! D41   D(10,9,12,16)         179.9998         estimate D2E/DX2                !
 ! D42   D(9,10,13,14)        -179.9999         estimate D2E/DX2                !
 ! D43   D(9,10,13,15)           0.0            estimate D2E/DX2                !
 ! D44   D(11,10,13,14)          0.0003         estimate D2E/DX2                !
 ! D45   D(11,10,13,15)       -179.9998         estimate D2E/DX2                !
 ! D46   D(9,12,15,13)           0.0            estimate D2E/DX2                !
 ! D47   D(9,12,15,18)         179.9998         estimate D2E/DX2                !
 ! D48   D(16,12,15,13)       -179.9998         estimate D2E/DX2                !
 ! D49   D(16,12,15,18)          0.0            estimate D2E/DX2                !
 ! D50   D(9,12,16,17)           0.0003         estimate D2E/DX2                !
 ! D51   D(9,12,16,20)        -179.9997         estimate D2E/DX2                !
 ! D52   D(15,12,16,17)        180.0            estimate D2E/DX2                !
 ! D53   D(15,12,16,20)          0.0            estimate D2E/DX2                !
 ! D54   D(10,13,15,12)          0.0            estimate D2E/DX2                !
 ! D55   D(10,13,15,18)       -179.9998         estimate D2E/DX2                !
 ! D56   D(14,13,15,12)        179.9999         estimate D2E/DX2                !
 ! D57   D(14,13,15,18)          0.0002         estimate D2E/DX2                !
 ! D58   D(12,15,18,19)       -179.9998         estimate D2E/DX2                !
 ! D59   D(12,15,18,22)          0.0            estimate D2E/DX2                !
 ! D60   D(13,15,18,19)         -0.0001         estimate D2E/DX2                !
 ! D61   D(13,15,18,22)        179.9997         estimate D2E/DX2                !
 ! D62   D(12,16,20,21)       -179.9999         estimate D2E/DX2                !
 ! D63   D(12,16,20,22)          0.0            estimate D2E/DX2                !
 ! D64   D(17,16,20,21)          0.0001         estimate D2E/DX2                !
 ! D65   D(17,16,20,22)       -180.0            estimate D2E/DX2                !
 ! D66   D(15,18,22,20)          0.0            estimate D2E/DX2                !
 ! D67   D(15,18,22,23)       -179.9999         estimate D2E/DX2                !
 ! D68   D(19,18,22,20)        179.9999         estimate D2E/DX2                !
 ! D69   D(19,18,22,23)         -0.0001         estimate D2E/DX2                !
 ! D70   D(16,20,22,18)         -0.0001         estimate D2E/DX2                !
 ! D71   D(16,20,22,23)        179.9999         estimate D2E/DX2                !
 ! D72   D(21,20,22,18)        179.9999         estimate D2E/DX2                !
 ! D73   D(21,20,22,23)         -0.0002         estimate D2E/DX2                !
 ! D74   D(4,24,26,27)         180.0            estimate D2E/DX2                !
 ! D75   D(4,24,26,28)         -60.0            estimate D2E/DX2                !
 ! D76   D(4,24,26,29)          60.0            estimate D2E/DX2                !
 ! D77   D(1,30,31,32)         122.1219         estimate D2E/DX2                !
 ! D78   D(1,30,31,33)         -57.8781         estimate D2E/DX2                !
 ! D79   D(34,30,31,32)          0.0001         estimate D2E/DX2                !
 ! D80   D(34,30,31,33)       -179.9999         estimate D2E/DX2                !
 ! D81   D(30,31,32,35)        179.9999         estimate D2E/DX2                !
 ! D82   D(30,31,32,36)         -0.0001         estimate D2E/DX2                !
 ! D83   D(33,31,32,35)         -0.0001         estimate D2E/DX2                !
 ! D84   D(33,31,32,36)        179.9999         estimate D2E/DX2                !
 ! D85   D(30,31,33,37)       -150.0            estimate D2E/DX2                !
 ! D86   D(30,31,33,38)        -30.0            estimate D2E/DX2                !
 ! D87   D(30,31,33,39)         90.0            estimate D2E/DX2                !
 ! D88   D(32,31,33,37)         30.0            estimate D2E/DX2                !
 ! D89   D(32,31,33,38)        150.0            estimate D2E/DX2                !
 ! D90   D(32,31,33,39)        -90.0            estimate D2E/DX2                !
 --------------------------------------------------------------------------------
 Trust Radius=3.00D-01 FncErr=1.00D-07 GrdErr=1.00D-06
 Number of steps in this run=    207 maximum allowed number of steps=    234.
 GradGradGradGradGradGradGradGradGradGradGradGradGradGradGradGradGradGrad

 Leave Link  103 at Thu Feb 08 17:23:08 2024, MaxMem=    33554432 cpu:         0.0
 (Enter C:\G09W\l202.exe)
                          Input orientation:                          
 ---------------------------------------------------------------------
 Center     Atomic      Atomic             Coordinates (Angstroms)
 Number     Number       Type             X           Y           Z
 ---------------------------------------------------------------------
      1          7           0        1.530864   -0.711165   -0.928301
      2          6           0        0.549072   -0.231961   -1.911840
      3          1           0        0.920831    0.652855   -2.384910
      4          6           0       -0.778404    0.086162   -1.198954
      5          8           0       -1.534628    0.985559   -1.649264
      6          6           0        0.312948   -1.321534   -2.974231
      7          1           0       -0.401690   -0.972726   -3.690140
      8          1           0        1.235285   -1.542567   -3.469548
      9          6           0       -0.222108   -2.595007   -2.293364
     10          6           0        0.522172   -3.617253   -1.799409
     11          1           0        1.589820   -3.687169   -1.811185
     12          6           0       -1.567941   -2.914310   -2.068355
     13          7           0       -0.410178   -4.611364   -1.244842
     14          1           0       -0.165787   -5.477562   -0.808981
     15          6           0       -1.645198   -4.137650   -1.433859
     16          6           0       -2.706721   -2.183942   -2.394070
     17          1           0       -2.633917   -1.236538   -2.886031
     18          6           0       -2.865347   -4.708208   -1.084872
     19          1           0       -2.911440   -5.657421   -0.593172
     20          6           0       -3.960607   -2.734321   -2.053980
     21          1           0       -4.857318   -2.200092   -2.289371
     22          6           0       -4.039721   -3.993094   -1.401123
     23          1           0       -4.995642   -4.401551   -1.147592
     24          8           0       -1.151714   -0.640481   -0.025271
     25          1           0        1.223406   -1.203155   -0.113797
     26          6           0       -2.577401   -0.718286    0.053859
     27          1           0       -2.856731   -1.261998    0.932069
     28          1           0       -2.986448    0.269333    0.100645
     29          1           0       -2.955798   -1.220412   -0.811927
     30          6           0        2.835580   -0.489107   -1.122843
     31          6           0        2.977560   -2.020773   -1.049073
     32          6           0        3.519170   -2.701892   -2.087967
     33          6           0        2.504073   -2.778440    0.205260
     34          8           0        3.222484    0.130015   -2.147813
     35          1           0        3.617821   -3.766101   -2.036710
     36          1           0        3.848150   -2.175461   -2.959485
     37          1           0        3.100602   -3.656787    0.337778
     38          1           0        2.604422   -2.146418    1.062802
     39          1           0        1.478213   -3.058547    0.086717
 ---------------------------------------------------------------------
                    Distance matrix (angstroms):
                    1          2          3          4          5
     1  N    0.000000
     2  C    1.470000   0.000000
     3  H    2.086720   1.070000   0.000000
     4  C    2.457987   1.540000   2.148263   0.000000
     5  O    3.577136   2.427572   2.584792   1.258400   0.000000
     6  C    2.457987   1.540000   2.148263   2.514809   3.239097
     7  H    3.380966   2.148263   2.468846   2.732978   3.046901
     8  H    2.690080   2.148263   2.468846   3.444314   4.168606
     9  C    2.912931   2.514809   3.444314   2.948875   3.867561
    10  C    3.197129   3.387265   4.328459   3.970809   5.043693
    11  H    3.104764   3.609952   4.428602   4.496814   5.623414
    12  C    3.969403   3.420707   4.361062   3.222121   3.922464
    13  N    4.367996   4.532573   5.548274   4.712159   5.723067
    14  H    5.060770   5.407740   6.422328   5.610918   6.659709
    15  C    4.699335   4.505296   5.517059   4.318229   5.128927
    16  C    4.719605   3.826612   4.605066   3.209374   3.460386
    17  H    4.631860   3.477016   4.056743   2.835259   2.770513
    18  C    5.943696   5.690247   6.690757   5.230136   5.874379
    19  H    6.656712   6.568839   7.597118   6.156749   6.865867
    20  C    5.959578   5.159381   5.950707   4.337351   4.459448
    21  H    6.699125   5.765858   6.444799   4.801407   4.647405
    22  C    6.482749   5.955163   6.867296   5.226604   5.578893
    23  H    7.500821   6.979499   7.879253   6.158514   6.422713
    24  O    2.831374   2.572683   3.396477   1.430000   2.329803
    25  H    1.000000   2.151953   2.948606   2.616705   3.841208
    26  C    4.224042   3.724958   4.479425   2.335180   2.625089
    27  H    4.797435   4.555028   5.379497   3.267757   3.669162
    28  H    4.735632   4.098938   4.646709   2.568651   2.383892
    29  H    4.516968   3.804070   4.583847   2.568651   2.754480
    30  C    1.337700   2.432439   2.561865   3.660274   4.642250
    31  C    1.955144   3.137160   3.628069   4.309165   5.455099
    32  C    3.043219   3.866920   4.253689   5.199301   6.271414
    33  C    2.550632   3.845608   4.581422   4.577381   5.823921
    34  O    2.248638   2.708107   2.372169   4.112100   4.859077
    35  H    3.862201   4.682196   5.188658   5.904960   7.019695
    36  H    3.411698   3.969719   4.110803   5.442372   6.378325
    37  H    3.569835   4.827061   5.544136   5.605166   6.854565
    38  H    2.678987   4.091223   4.749435   4.641494   5.856307
    39  H    2.557975   3.584288   4.493787   4.078537   5.333445
                    6          7          8          9         10
     6  C    0.000000
     7  H    1.070000   0.000000
     8  H    1.070000   1.747303   0.000000
     9  C    1.540000   2.148263   2.148263   0.000000
    10  C    2.587336   3.379632   2.757212   1.357545   0.000000
    11  H    2.929046   3.855488   2.734078   2.169884   1.070000
    12  C    2.625889   2.785692   3.420979   1.401375   2.221493
    13  N    3.786381   4.383976   4.132115   2.280452   1.471420
    14  H    4.710633   5.352595   4.952353   3.242790   2.216976
    15  C    3.759999   4.080915   4.379003   2.267968   2.258745
    16  C    3.193545   2.908610   4.136112   2.520401   3.582422
    17  H    2.949410   2.387264   3.924904   2.830816   4.099933
    18  C    5.014060   5.177920   5.702906   3.593436   3.629879
    19  H    5.904747   6.151132   6.511596   4.416054   4.172167
    20  C    4.594138   4.294896   5.515560   3.748745   4.575989
    21  H    5.288908   4.829203   6.240590   4.652005   5.584560
    22  C    5.343934   5.253332   6.173261   4.162320   4.594644
    23  H    6.403455   6.271028   7.238074   5.230968   5.611262
    24  O    3.362355   3.755555   4.286557   3.135057   3.848458
    25  H    3.004169   3.935005   3.372893   2.962646   3.026695
    26  C    4.229345   4.337740   5.256464   3.818238   4.630978
    27  H    5.030864   5.241729   6.016440   4.372822   4.942184
    28  H    4.782440   4.753287   5.818272   4.645137   5.570114
    29  H    3.920520   3.856024   4.973118   3.399592   4.337769
    30  C    3.237939   4.159906   3.029480   3.892863   3.949037
    31  C    3.360852   4.415085   3.020415   3.480787   3.023356
    32  C    3.601488   4.574945   2.910143   3.748436   3.146928
    33  C    4.127078   5.184420   4.079390   3.702543   2.941128
    34  O    3.354901   4.090165   2.914357   4.394558   4.631963
    35  H    4.216283   5.166551   3.560001   4.022733   3.108297
    36  H    3.636903   4.476781   2.736382   4.145689   3.806136
    37  H    4.918722   5.974475   4.737622   4.369288   3.349243
    38  H    4.714757   5.744974   4.772984   4.410709   3.832933
    39  H    3.707353   4.706309   3.873530   2.961544   2.187153
                   11         12         13         14         15
    11  H    0.000000
    12  C    3.261120   0.000000
    13  N    2.274834   2.213274   0.000000
    14  H    2.700384   3.181559   1.000000   0.000000
    15  C    3.287955   1.380259   1.336191   2.091528   0.000000
    16  C    4.589086   1.391527   3.533725   4.451605   2.421944
    17  H    5.000085   2.149377   4.362106   5.328423   3.391581
    18  C    4.628019   2.422512   2.462280   2.820575   1.391435
    19  H    5.062290   3.392021   2.788408   2.759987   2.149378
    20  C    5.636853   2.399469   4.096772   4.845209   2.777589
    21  H    6.633675   3.373270   5.165494   5.911330   3.847564
    22  C    5.652740   2.778249   3.685142   4.190661   2.399106
    23  H    6.657252   3.848223   4.591292   4.959834   3.372991
    24  O    4.470773   3.085083   4.219614   4.998360   3.802347
    25  H    3.030794   3.813131   3.945091   4.547933   4.310767
    26  C    5.445952   3.216415   4.641070   5.404728   3.843743
    27  H    5.760097   3.659735   4.684316   5.295603   3.915968
    28  H    6.344386   4.105156   5.680555   6.466092   4.855425
    29  H    5.267452   2.524688   4.262177   5.089940   3.258029
    30  C    3.500476   5.115330   5.248126   5.830213   5.786706
    31  C    2.298590   4.743303   4.269221   4.678425   5.098933
    32  C    2.183981   5.091583   4.449351   4.787386   5.399996
    33  C    2.393261   4.665735   3.735674   3.929643   4.663755
    34  O    4.165310   5.676478   6.040882   6.687134   6.512835
    35  H    2.042028   5.255348   4.191217   4.330370   5.310447
    36  H    2.950239   5.538416   5.196824   5.624965   6.029477
    37  H    2.627056   5.304342   3.967553   3.911467   5.088471
    38  H    3.415133   5.272800   4.526476   4.719549   5.315787
    39  H    2.002412   3.734193   2.783938   3.058863   3.637624
                   16         17         18         19         20
    16  C    0.000000
    17  H    1.070000   0.000000
    18  C    2.847996   3.917936   0.000000
    19  H    3.917934   4.987828   1.070000   0.000000
    20  C    1.410961   2.166972   2.456622   3.432088   0.000000
    21  H    2.153205   2.495586   3.421902   4.314703   1.070000
    22  C    2.456800   3.432177   1.410872   2.166977   1.420207
    23  H    3.422084   4.314768   2.153168   2.495695   2.161595
    24  O    3.226690   3.276608   4.539350   5.346853   4.048421
    25  H    4.648385   4.750299   5.472320   6.096494   5.743063
    26  C    2.856086   2.985755   4.159218   4.992523   3.228102
    27  H    3.454806   3.824680   3.993055   4.652859   3.507531
    28  H    3.510044   3.363355   5.118206   5.967698   3.822739
    29  H    1.869119   2.098993   3.499629   4.442620   2.200968
    30  C    5.933429   5.795074   7.092448   7.747274   7.217767
    31  C    5.843517   5.956351   6.431418   6.936380   7.046783
    32  C    6.254894   6.375316   6.767094   7.233416   7.479925
    33  C    5.853402   6.191324   5.849710   6.184965   6.848226
    34  O    6.369498   6.058867   7.848562   8.575333   7.733694
    35  H    6.529224   6.797372   6.620047   6.949254   7.648362
    36  H    6.579217   6.550127   7.416199   7.963387   7.880923
    37  H    6.584623   7.009655   6.222697   6.404205   7.512131
    38  H    6.337161   6.622792   6.410432   6.744933   7.291061
    39  H    4.942966   5.391342   4.791713   5.146401   5.853928
                   21         22         23         24         25
    21  H    0.000000
    22  C    2.161551   0.000000
    23  H    2.483790   1.070000   0.000000
    24  O    4.614113   4.633958   5.493727   0.000000
    25  H    6.534693   6.094381   7.069302   2.442465   0.000000
    26  C    3.589498   3.870364   4.567035   1.430000   3.835276
    27  H    3.906411   3.781817   4.330903   2.051796   4.212460
    28  H    3.912849   4.640363   5.235657   2.051796   4.465096
    29  H    2.599691   3.034766   3.793848   2.051796   4.237149
    30  C    7.966739   7.721731   8.754191   4.138368   2.031537
    31  C    7.934469   7.297686   8.321644   4.472614   2.149487
    32  C    8.393922   7.699078   8.733566   5.506477   3.378475
    33  C    7.794084   6.846685   7.791689   4.241320   2.055098
    34  O    8.410270   8.384342   9.437856   4.922647   3.148154
    35  H    8.622308   7.687226   8.682515   6.046805   3.999938
    36  H    8.731256   8.243227   9.297908   5.997034   3.991566
    37  H    8.506019   7.356704   8.264996   5.226097   3.122194
    38  H    8.180312   7.322962   8.229972   4.190502   2.044832
    39  H    6.820681   5.790911   6.725918   3.574367   1.883511
                   26         27         28         29         30
    26  C    0.000000
    27  H    1.070000   0.000000
    28  H    1.070000   1.747303   0.000000
    29  H    1.070000   1.747303   1.747303   0.000000
    30  C    5.544143   6.101019   5.997347   5.845642   0.000000
    31  C    5.811241   6.208028   6.491212   5.991790   1.540000
    32  C    6.759460   7.200419   7.479390   6.763747   2.509019
    33  C    5.485302   5.618369   6.280580   5.768215   2.667358
    34  O    6.261441   6.955590   6.604984   6.463699   1.258400
    35  H    7.213905   7.550100   8.029283   7.154934   3.490808
    36  H    7.245089   7.806026   7.877382   7.198460   2.691159
    37  H    6.399618   6.448101   7.247263   6.628553   3.498263
    38  H    5.468896   5.533849   6.165990   5.940382   2.752664
    39  H    4.682511   4.768013   5.568499   4.883314   3.147618
                   31         32         33         34         35
    31  C    0.000000
    32  C    1.355200   0.000000
    33  C    1.540000   2.509019   0.000000
    34  O    2.427572   2.848034   3.809485   0.000000
    35  H    2.105120   1.070000   2.691159   3.917697   0.000000
    36  H    2.105120   1.070000   3.490808   2.522991   1.853294
    37  H    2.148263   2.640315   1.070000   4.531322   2.432624
    38  H    2.148263   3.327561   1.070000   3.983993   3.641061
    39  H    2.148263   3.003658   1.070000   4.266443   3.096369
                   36         37         38         39
    36  H    0.000000
    37  H    3.691219   0.000000
    38  H    4.210285   1.747303   0.000000
    39  H    3.959266   1.747303   1.747303   0.000000
 Stoichiometry    C16H18N2O3
 Framework group  C1[X(C16H18N2O3)]
 Deg. of freedom   111
 Full point group                 C1      NOp   1
 Largest Abelian subgroup         C1      NOp   1
 Largest concise Abelian subgroup C1      NOp   1
                         Standard orientation:                         
 ---------------------------------------------------------------------
 Center     Atomic      Atomic             Coordinates (Angstroms)
 Number     Number       Type             X           Y           Z
 ---------------------------------------------------------------------
      1          7           0        2.061034    0.658397    0.503028
      2          6           0        1.276140    1.412090   -0.485299
      3          1           0        1.901310    2.142080   -0.955592
      4          6           0        0.103923    2.118451    0.220789
      5          8           0       -0.341423    3.204521   -0.232741
      6          6           0        0.726310    0.444670   -1.549905
      7          1           0        0.154993    0.993276   -2.269299
      8          1           0        1.540773   -0.046113   -2.040499
      9          6           0       -0.173467   -0.605970   -0.873033
     10          6           0        0.222998   -1.805443   -0.376033
     11          1           0        1.219178   -2.195940   -0.382184
     12          6           0       -1.553928   -0.501804   -0.655482
     13          7           0       -0.969929   -2.469464    0.172672
     14          1           0       -1.002144   -3.368648    0.609055
     15          6           0       -2.002029   -1.643580   -0.022499
     16          6           0       -2.415738    0.539343   -0.986607
     17          1           0       -2.056346    1.419645   -1.477328
     18          6           0       -3.339608   -1.816860    0.319474
     19          1           0       -3.674096   -2.706989    0.810075
     20          6           0       -3.779296    0.395517   -0.653693
     21          1           0       -4.470428    1.176406   -0.893380
     22          6           0       -4.240014   -0.779444   -0.002390
     23          1           0       -5.276137   -0.878487    0.245681
     24          8           0       -0.478490    1.540188    1.391818
     25          1           0        1.614471    0.283479    1.315443
     26          6           0       -1.861004    1.898584    1.463283
     27          1           0       -2.296795    1.465897    2.339507
     28          1           0       -1.951432    2.963785    1.508770
     29          1           0       -2.369253    1.534240    0.595045
     30          6           0        3.372654    0.474064    0.315637
     31          6           0        3.042925   -1.028443    0.388796
     32          6           0        3.357948   -1.842558   -0.647806
     33          6           0        2.355215   -1.605819    1.639912
     34          8           0        3.934609    0.945863   -0.706705
     35          1           0        3.128853   -2.886508   -0.596974
     36          1           0        3.835771   -1.441394   -1.517089
     37          1           0        2.656477   -2.623631    1.774822
     38          1           0        2.637970   -1.033362    2.498540
     39          1           0        1.293373   -1.561629    1.515657
 ---------------------------------------------------------------------
 Rotational constants (GHZ):      0.5424661      0.2716970      0.2139607
 Leave Link  202 at Thu Feb 08 17:23:08 2024, MaxMem=    33554432 cpu:         0.0
 (Enter C:\G09W\l301.exe)
 Standard basis: 6-31G(d,p) (6D, 7F)
 Ernie: Thresh=  0.10000D-02 Tol=  0.10000D-05 Strict=F.
 There are   405 symmetry adapted cartesian basis functions of A   symmetry.
 There are   405 symmetry adapted basis functions of A   symmetry.
   405 basis functions,   714 primitive gaussians,   405 cartesian basis functions
    76 alpha electrons       76 beta electrons
       nuclear repulsion energy      1778.0421768483 Hartrees.
 IExCor=  402 DFT=T Ex+Corr=B3LYP ExCW=0 ScaHFX=  0.200000
 ScaDFX=  0.800000  0.720000  1.000000  0.810000 ScalE2=  1.000000  1.000000
 IRadAn=      0 IRanWt=     -1 IRanGd=            0 ICorTp=0 IEmpDi=  4
 NAtoms=   39 NActive=   39 NUniq=   39 SFac= 1.00D+00 NAtFMM=   60 NAOKFM=F Big=F
 Integral buffers will be    262144 words long.
 Raffenetti 2 integral format.
 Two-electron integral symmetry is turned on.
 Leave Link  301 at Thu Feb 08 17:23:08 2024, MaxMem=    33554432 cpu:         0.0
 (Enter C:\G09W\l302.exe)
 NPDir=0 NMtPBC=     1 NCelOv=     1 NCel=       1 NClECP=     1 NCelD=      1
         NCelK=      1 NCelE2=     1 NClLst=     1 CellRange=     0.0.
 One-electron integrals computed using PRISM.
 NBasis=   405 RedAO= T EigKep=  3.41D-04  NBF=   405
 NBsUse=   405 1.00D-06 EigRej= -1.00D+00 NBFU=   405
 Precomputing XC quadrature grid using
 IXCGrd= 4 IRadAn=           0 IRanWt=          -1 IRanGd=           0 AccXCQ= 0.00D+00.
 Generated NRdTot=       0 NPtTot=           0 NUsed=           0 NTot=          16
 NSgBfM=   404   404   404   404   404 MxSgAt=    39 MxSgA2=    39.
 Leave Link  302 at Thu Feb 08 17:23:09 2024, MaxMem=    33554432 cpu:         1.0
 (Enter C:\G09W\l303.exe)
 DipDrv:  MaxL=1.
 Leave Link  303 at Thu Feb 08 17:23:09 2024, MaxMem=    33554432 cpu:         0.0
 (Enter C:\G09W\l401.exe)
 ExpMin= 1.61D-01 ExpMax= 5.48D+03 ExpMxC= 8.25D+02 IAcc=1 IRadAn=         1 AccDes= 0.00D+00
 Harris functional with IExCor=  402 and IRadAn=       1 diagonalized for initial guess.
 HarFok:  IExCor=  402 AccDes= 0.00D+00 IRadAn=         1 IDoV= 1 UseB2=F ITyADJ=14
 ICtDFT=  3500011 ScaDFX=  1.000000  1.000000  1.000000  1.000000
 FoFCou: FMM=F IPFlag=           0 FMFlag=      100000 FMFlg1=           0
         NFxFlg=           0 DoJE=T BraDBF=F KetDBF=T FulRan=T
         wScrn=  0.000000 ICntrl=     500 IOpCl=  0 I1Cent=   200000004 NGrid=           0
         NMat0=    1 NMatS0=      1 NMatT0=    0 NMatD0=    1 NMtDS0=    0 NMtDT0=    0
 Petite list used in FoFCou.
 Harris En= -955.633988919551    
 JPrj=0 DoOrth=F DoCkMO=F.
 Leave Link  401 at Thu Feb 08 17:23:11 2024, MaxMem=    33554432 cpu:         2.0
 (Enter C:\G09W\l502.exe)
 Closed shell SCF:
 Using DIIS extrapolation, IDIIS=  1040.
 Integral symmetry usage will be decided dynamically.
 IVT=      516292 IEndB=      516292 NGot=    33554432 MDV=    33219211
 LenX=    33219211 LenY=    33054745
 Requested convergence on RMS density matrix=1.00D-08 within 128 cycles.
 Requested convergence on MAX density matrix=1.00D-06.
 Requested convergence on             energy=1.00D-06.
 No special actions if energy rises.
 Fock matrices will be formed incrementally for  20 cycles.
 Integral accuracy reduced to 1.0D-05 until final iterations.

 Cycle   1  Pass 0  IDiag  1:
 FoFJK:  IHMeth= 1 ICntrl=       0 DoSepK=F KAlg= 0 I1Cent=   0 FoldK=F
 IRaf= 780000000 NMat=   1 IRICut=       1 DoRegI=T DoRafI=F ISym2E= 0.
 FoFCou: FMM=F IPFlag=           0 FMFlag=      100000 FMFlg1=           0
         NFxFlg=           0 DoJE=F BraDBF=F KetDBF=F FulRan=T
         wScrn=  0.000000 ICntrl=       0 IOpCl=  0 I1Cent=           0 NGrid=           0
         NMat0=    1 NMatS0=      1 NMatT0=    0 NMatD0=    1 NMtDS0=    0 NMtDT0=    0
 Symmetry not used in FoFCou.
 E= -955.002590184226    
 DIIS: error= 2.08D-02 at cycle   1 NSaved=   1.
 NSaved= 1 IEnMin= 1 EnMin= -955.002590184226     IErMin= 1 ErrMin= 2.08D-02
 ErrMax= 2.08D-02  0.00D+00 EMaxC= 1.00D-01 BMatC= 5.99D-01 BMatP= 5.99D-01
 IDIUse=3 WtCom= 7.92D-01 WtEn= 2.08D-01
 Coeff-Com:  0.100D+01
 Coeff-En:   0.100D+01
 Coeff:      0.100D+01
 Gap=     0.202 Goal=   None    Shift=    0.000
 GapD=    0.202 DampG=1.000 DampE=0.500 DampFc=0.5000 IDamp=-1.
 Damping current iteration by 5.00D-01
 RMSDP=5.09D-03 MaxDP=3.05D-01              OVMax= 4.15D-01

 Cycle   2  Pass 0  IDiag  1:
 RMSU=  2.53D-03    CP:  9.82D-01
 E= -955.090733309192     Delta-E=       -0.088143124965 Rises=F Damp=T
 DIIS: error= 1.28D-02 at cycle   2 NSaved=   2.
 NSaved= 2 IEnMin= 2 EnMin= -955.090733309192     IErMin= 2 ErrMin= 1.28D-02
 ErrMax= 1.28D-02  0.00D+00 EMaxC= 1.00D-01 BMatC= 1.69D-01 BMatP= 5.99D-01
 IDIUse=3 WtCom= 8.72D-01 WtEn= 1.28D-01
 Coeff-Com:  0.286D+00 0.714D+00
 Coeff-En:   0.424D+00 0.576D+00
 Coeff:      0.304D+00 0.696D+00
 Gap=     0.132 Goal=   None    Shift=    0.000
 RMSDP=2.07D-03 MaxDP=1.48D-01 DE=-8.81D-02 OVMax= 2.80D-01

 Cycle   3  Pass 0  IDiag  1:
 RMSU=  1.82D-03    CP:  9.62D-01  6.27D-01
 E= -955.395522882327     Delta-E=       -0.304789573135 Rises=F Damp=F
 DIIS: error= 1.28D-02 at cycle   3 NSaved=   3.
 NSaved= 3 IEnMin= 3 EnMin= -955.395522882327     IErMin= 2 ErrMin= 1.28D-02
 ErrMax= 1.28D-02  0.00D+00 EMaxC= 1.00D-01 BMatC= 2.04D-01 BMatP= 1.69D-01
 IDIUse=2 WtCom= 0.00D+00 WtEn= 1.00D+00
 Coeff-En:   0.000D+00 0.136D+00 0.864D+00
 Coeff:      0.000D+00 0.136D+00 0.864D+00
 Gap=     0.153 Goal=   None    Shift=    0.000
 RMSDP=3.30D-03 MaxDP=2.20D-01 DE=-3.05D-01 OVMax= 4.54D-01

 Cycle   4  Pass 0  IDiag  1:
 RMSU=  1.74D-03    CP:  9.73D-01  1.18D+00 -3.31D-01
 E= -954.746702653523     Delta-E=        0.648820228804 Rises=F Damp=F
 DIIS: error= 3.21D-02 at cycle   4 NSaved=   4.
 NSaved= 4 IEnMin= 3 EnMin= -955.395522882327     IErMin= 2 ErrMin= 1.28D-02
 ErrMax= 3.21D-02  0.00D+00 EMaxC= 1.00D-01 BMatC= 9.89D-01 BMatP= 1.69D-01
 IDIUse=2 WtCom= 0.00D+00 WtEn= 1.00D+00
 Coeff-En:   0.000D+00 0.000D+00 0.751D+00 0.249D+00
 Coeff:      0.000D+00 0.000D+00 0.751D+00 0.249D+00
 Gap=     0.167 Goal=   None    Shift=    0.000
 RMSDP=1.85D-03 MaxDP=1.39D-01 DE= 6.49D-01 OVMax= 2.39D-01

 Cycle   5  Pass 0  IDiag  1:
 RMSU=  4.50D-04    CP:  9.70D-01  7.83D-01  3.29D-01  4.93D-01
 E= -955.531196251893     Delta-E=       -0.784493598370 Rises=F Damp=F
 DIIS: error= 7.08D-03 at cycle   5 NSaved=   5.
 NSaved= 5 IEnMin= 5 EnMin= -955.531196251893     IErMin= 5 ErrMin= 7.08D-03
 ErrMax= 7.08D-03  0.00D+00 EMaxC= 1.00D-01 BMatC= 5.39D-02 BMatP= 1.69D-01
 IDIUse=3 WtCom= 9.29D-01 WtEn= 7.08D-02
 Coeff-Com:  0.175D-02 0.585D-01 0.328D+00-0.152D-01 0.626D+00
 Coeff-En:   0.000D+00 0.000D+00 0.261D+00 0.000D+00 0.739D+00
 Coeff:      0.163D-02 0.544D-01 0.324D+00-0.141D-01 0.634D+00
 Gap=     0.148 Goal=   None    Shift=    0.000
 RMSDP=5.91D-04 MaxDP=3.32D-02 DE=-7.84D-01 OVMax= 5.79D-02

 Cycle   6  Pass 0  IDiag  1:
 RMSU=  2.39D-04    CP:  9.68D-01  7.27D-01  5.55D-01  3.25D-01  7.04D-01
 E= -955.574727514690     Delta-E=       -0.043531262796 Rises=F Damp=F
 DIIS: error= 2.08D-03 at cycle   6 NSaved=   6.
 NSaved= 6 IEnMin= 6 EnMin= -955.574727514690     IErMin= 6 ErrMin= 2.08D-03
 ErrMax= 2.08D-03  0.00D+00 EMaxC= 1.00D-01 BMatC= 3.71D-03 BMatP= 5.39D-02
 IDIUse=3 WtCom= 9.79D-01 WtEn= 2.08D-02
 Coeff-Com: -0.122D-01 0.379D-01 0.147D+00-0.547D-01 0.465D+00 0.417D+00
 Coeff-En:   0.000D+00 0.000D+00 0.000D+00 0.000D+00 0.000D+00 0.100D+01
 Coeff:     -0.119D-01 0.371D-01 0.144D+00-0.536D-01 0.455D+00 0.429D+00
 Gap=     0.150 Goal=   None    Shift=    0.000
 RMSDP=1.41D-04 MaxDP=8.11D-03 DE=-4.35D-02 OVMax= 1.22D-02

 Cycle   7  Pass 0  IDiag  1:
 RMSU=  4.80D-05    CP:  9.68D-01  7.35D-01  5.49D-01  3.23D-01  8.07D-01
                    CP:  4.88D-01
 E= -955.577748798771     Delta-E=       -0.003021284081 Rises=F Damp=F
 DIIS: error= 4.83D-04 at cycle   7 NSaved=   7.
 NSaved= 7 IEnMin= 7 EnMin= -955.577748798771     IErMin= 7 ErrMin= 4.83D-04
 ErrMax= 4.83D-04  0.00D+00 EMaxC= 1.00D-01 BMatC= 1.35D-04 BMatP= 3.71D-03
 IDIUse=3 WtCom= 9.95D-01 WtEn= 4.83D-03
 Coeff-Com: -0.575D-02 0.174D-01 0.639D-01-0.290D-01 0.211D+00 0.232D+00
 Coeff-Com:  0.511D+00
 Coeff-En:   0.000D+00 0.000D+00 0.000D+00 0.000D+00 0.000D+00 0.000D+00
 Coeff-En:   0.100D+01
 Coeff:     -0.572D-02 0.173D-01 0.636D-01-0.289D-01 0.210D+00 0.230D+00
 Coeff:      0.513D+00
 Gap=     0.150 Goal=   None    Shift=    0.000
 RMSDP=3.21D-05 MaxDP=2.04D-03 DE=-3.02D-03 OVMax= 3.32D-03

 Cycle   8  Pass 0  IDiag  1:
 RMSU=  2.10D-05    CP:  9.68D-01  7.35D-01  5.50D-01  3.20D-01  8.06D-01
                    CP:  5.12D-01  5.22D-01
 E= -955.577824480629     Delta-E=       -0.000075681858 Rises=F Damp=F
 DIIS: error= 1.66D-04 at cycle   8 NSaved=   8.
 NSaved= 8 IEnMin= 8 EnMin= -955.577824480629     IErMin= 8 ErrMin= 1.66D-04
 ErrMax= 1.66D-04  0.00D+00 EMaxC= 1.00D-01 BMatC= 3.57D-05 BMatP= 1.35D-04
 IDIUse=3 WtCom= 9.98D-01 WtEn= 1.66D-03
 Coeff-Com: -0.520D-03 0.194D-02 0.114D-01-0.642D-02 0.330D-01 0.541D-01
 Coeff-Com:  0.368D+00 0.538D+00
 Coeff-En:   0.000D+00 0.000D+00 0.000D+00 0.000D+00 0.000D+00 0.000D+00
 Coeff-En:   0.212D+00 0.788D+00
 Coeff:     -0.519D-03 0.193D-02 0.114D-01-0.640D-02 0.329D-01 0.540D-01
 Coeff:      0.368D+00 0.539D+00
 Gap=     0.151 Goal=   None    Shift=    0.000
 RMSDP=1.51D-05 MaxDP=9.34D-04 DE=-7.57D-05 OVMax= 1.53D-03

 Cycle   9  Pass 0  IDiag  1:
 RMSU=  6.31D-06    CP:  9.68D-01  7.32D-01  5.53D-01  3.20D-01  8.05D-01
                    CP:  5.14D-01  6.63D-01  5.60D-01
 E= -955.577854708683     Delta-E=       -0.000030228054 Rises=F Damp=F
 DIIS: error= 3.55D-05 at cycle   9 NSaved=   9.
 NSaved= 9 IEnMin= 9 EnMin= -955.577854708683     IErMin= 9 ErrMin= 3.55D-05
 ErrMax= 3.55D-05  0.00D+00 EMaxC= 1.00D-01 BMatC= 1.49D-06 BMatP= 3.57D-05
 IDIUse=1 WtCom= 1.00D+00 WtEn= 0.00D+00
 Coeff-Com:  0.201D-03-0.735D-03 0.267D-02-0.121D-02 0.419D-02 0.150D-01
 Coeff-Com:  0.167D+00 0.286D+00 0.527D+00
 Coeff:      0.201D-03-0.735D-03 0.267D-02-0.121D-02 0.419D-02 0.150D-01
 Coeff:      0.167D+00 0.286D+00 0.527D+00
 Gap=     0.150 Goal=   None    Shift=    0.000
 RMSDP=3.60D-06 MaxDP=1.74D-04 DE=-3.02D-05 OVMax= 3.99D-04

 Initial convergence to 1.0D-05 achieved.  Increase integral accuracy.
 Cycle  10  Pass 1  IDiag  1:
 E= -955.577752157124     Delta-E=        0.000102551559 Rises=F Damp=F
 DIIS: error= 6.80D-05 at cycle   1 NSaved=   1.
 NSaved= 1 IEnMin= 1 EnMin= -955.577752157124     IErMin= 1 ErrMin= 6.80D-05
 ErrMax= 6.80D-05  0.00D+00 EMaxC= 1.00D-01 BMatC= 1.24D-06 BMatP= 1.24D-06
 IDIUse=1 WtCom= 1.00D+00 WtEn= 0.00D+00
 Coeff-Com:  0.100D+01
 Coeff:      0.100D+01
 Gap=     0.150 Goal=   None    Shift=    0.000
 RMSDP=3.60D-06 MaxDP=1.74D-04 DE= 1.03D-04 OVMax= 5.58D-04

 Cycle  11  Pass 1  IDiag  1:
 RMSU=  3.59D-05    CP:  1.00D+00
 E= -955.577752423028     Delta-E=       -0.000000265904 Rises=F Damp=F
 DIIS: error= 3.87D-05 at cycle   2 NSaved=   2.
 NSaved= 2 IEnMin= 2 EnMin= -955.577752423028     IErMin= 2 ErrMin= 3.87D-05
 ErrMax= 3.87D-05  0.00D+00 EMaxC= 1.00D-01 BMatC= 9.53D-07 BMatP= 1.24D-06
 IDIUse=1 WtCom= 1.00D+00 WtEn= 0.00D+00
 Coeff-Com:  0.453D+00 0.547D+00
 Coeff:      0.453D+00 0.547D+00
 Gap=     0.150 Goal=   None    Shift=    0.000
 RMSDP=4.62D-06 MaxDP=1.96D-04 DE=-2.66D-07 OVMax= 6.50D-04

 Cycle  12  Pass 1  IDiag  1:
 RMSU=  4.61D-06    CP:  1.00D+00  9.93D-01
 E= -955.577752784758     Delta-E=       -0.000000361730 Rises=F Damp=F
 DIIS: error= 2.98D-05 at cycle   3 NSaved=   3.
 NSaved= 3 IEnMin= 3 EnMin= -955.577752784758     IErMin= 3 ErrMin= 2.98D-05
 ErrMax= 2.98D-05  0.00D+00 EMaxC= 1.00D-01 BMatC= 6.07D-07 BMatP= 9.53D-07
 IDIUse=1 WtCom= 1.00D+00 WtEn= 0.00D+00
 Coeff-Com:  0.141D-01 0.440D+00 0.546D+00
 Coeff:      0.141D-01 0.440D+00 0.546D+00
 Gap=     0.150 Goal=   None    Shift=    0.000
 RMSDP=2.24D-06 MaxDP=9.74D-05 DE=-3.62D-07 OVMax= 2.74D-04

 Cycle  13  Pass 1  IDiag  1:
 RMSU=  8.51D-07    CP:  1.00D+00  1.01D+00  5.63D-01
 E= -955.577753343455     Delta-E=       -0.000000558697 Rises=F Damp=F
 DIIS: error= 8.06D-06 at cycle   4 NSaved=   4.
 NSaved= 4 IEnMin= 4 EnMin= -955.577753343455     IErMin= 4 ErrMin= 8.06D-06
 ErrMax= 8.06D-06  0.00D+00 EMaxC= 1.00D-01 BMatC= 5.80D-08 BMatP= 6.07D-07
 IDIUse=1 WtCom= 1.00D+00 WtEn= 0.00D+00
 Coeff-Com: -0.692D-02 0.295D+00 0.391D+00 0.321D+00
 Coeff:     -0.692D-02 0.295D+00 0.391D+00 0.321D+00
 Gap=     0.150 Goal=   None    Shift=    0.000
 RMSDP=5.80D-07 MaxDP=3.83D-05 DE=-5.59D-07 OVMax= 6.33D-05

 Cycle  14  Pass 1  IDiag  1:
 RMSU=  2.71D-07    CP:  1.00D+00  1.01D+00  5.70D-01  4.02D-01
 E= -955.577753389616     Delta-E=       -0.000000046162 Rises=F Damp=F
 DIIS: error= 1.27D-06 at cycle   5 NSaved=   5.
 NSaved= 5 IEnMin= 5 EnMin= -955.577753389616     IErMin= 5 ErrMin= 1.27D-06
 ErrMax= 1.27D-06  0.00D+00 EMaxC= 1.00D-01 BMatC= 1.44D-09 BMatP= 5.80D-08
 IDIUse=1 WtCom= 1.00D+00 WtEn= 0.00D+00
 Coeff-Com: -0.490D-02 0.152D+00 0.204D+00 0.196D+00 0.454D+00
 Coeff:     -0.490D-02 0.152D+00 0.204D+00 0.196D+00 0.454D+00
 Gap=     0.150 Goal=   None    Shift=    0.000
 RMSDP=1.33D-07 MaxDP=5.73D-06 DE=-4.62D-08 OVMax= 1.41D-05

 Cycle  15  Pass 1  IDiag  1:
 RMSU=  9.15D-08    CP:  1.00D+00  1.01D+00  5.74D-01  4.12D-01  6.56D-01
 E= -955.577753390891     Delta-E=       -0.000000001274 Rises=F Damp=F
 DIIS: error= 4.41D-07 at cycle   6 NSaved=   6.
 NSaved= 6 IEnMin= 6 EnMin= -955.577753390891     IErMin= 6 ErrMin= 4.41D-07
 ErrMax= 4.41D-07  0.00D+00 EMaxC= 1.00D-01 BMatC= 1.64D-10 BMatP= 1.44D-09
 IDIUse=1 WtCom= 1.00D+00 WtEn= 0.00D+00
 Coeff-Com: -0.188D-02 0.459D-01 0.622D-01 0.684D-01 0.274D+00 0.551D+00
 Coeff:     -0.188D-02 0.459D-01 0.622D-01 0.684D-01 0.274D+00 0.551D+00
 Gap=     0.150 Goal=   None    Shift=    0.000
 RMSDP=4.00D-08 MaxDP=2.14D-06 DE=-1.27D-09 OVMax= 4.40D-06

 Cycle  16  Pass 1  IDiag  1:
 RMSU=  2.92D-08    CP:  1.00D+00  1.01D+00  5.73D-01  4.11D-01  7.28D-01
                    CP:  8.01D-01
 E= -955.577753390922     Delta-E=       -0.000000000031 Rises=F Damp=F
 DIIS: error= 1.08D-07 at cycle   7 NSaved=   7.
 NSaved= 7 IEnMin= 7 EnMin= -955.577753390922     IErMin= 7 ErrMin= 1.08D-07
 ErrMax= 1.08D-07  0.00D+00 EMaxC= 1.00D-01 BMatC= 1.74D-11 BMatP= 1.64D-10
 IDIUse=1 WtCom= 1.00D+00 WtEn= 0.00D+00
 Coeff-Com: -0.394D-03 0.554D-02 0.766D-02 0.133D-01 0.901D-01 0.306D+00
 Coeff-Com:  0.578D+00
 Coeff:     -0.394D-03 0.554D-02 0.766D-02 0.133D-01 0.901D-01 0.306D+00
 Coeff:      0.578D+00
 Gap=     0.150 Goal=   None    Shift=    0.000
 RMSDP=1.41D-08 MaxDP=5.04D-07 DE=-3.09D-11 OVMax= 8.85D-07

 Cycle  17  Pass 1  IDiag  1:
 RMSU=  1.03D-08    CP:  1.00D+00  1.01D+00  5.73D-01  4.15D-01  7.22D-01
                    CP:  8.45D-01  7.22D-01
 E= -955.577753390987     Delta-E=       -0.000000000065 Rises=F Damp=F
 DIIS: error= 3.98D-08 at cycle   8 NSaved=   8.
 NSaved= 8 IEnMin= 8 EnMin= -955.577753390987     IErMin= 8 ErrMin= 3.98D-08
 ErrMax= 3.98D-08  0.00D+00 EMaxC= 1.00D-01 BMatC= 2.27D-12 BMatP= 1.74D-11
 IDIUse=1 WtCom= 1.00D+00 WtEn= 0.00D+00
 Coeff-Com: -0.267D-04-0.169D-02-0.225D-02 0.424D-03 0.193D-01 0.107D+00
 Coeff-Com:  0.329D+00 0.548D+00
 Coeff:     -0.267D-04-0.169D-02-0.225D-02 0.424D-03 0.193D-01 0.107D+00
 Coeff:      0.329D+00 0.548D+00
 Gap=     0.150 Goal=   None    Shift=    0.000
 RMSDP=4.86D-09 MaxDP=2.75D-07 DE=-6.55D-11 OVMax= 4.26D-07

 SCF Done:  E(RB3LYP) =  -955.577753391     A.U. after   17 cycles
            NFock= 17  Conv=0.49D-08     -V/T= 2.0085
 KE= 9.474874104709D+02 PE=-5.779678301513D+03 EE= 2.098570960803D+03
 Leave Link  502 at Thu Feb 08 17:25:40 2024, MaxMem=    33554432 cpu:       149.0
 (Enter C:\G09W\l601.exe)
 Copying SCF densities to generalized density rwf, IOpCl= 0 IROHF=0.

 **********************************************************************

            Population analysis using the SCF density.

 **********************************************************************

 Orbital symmetries:
       Occupied  (A) (A) (A) (A) (A) (A) (A) (A) (A) (A) (A) (A)
                 (A) (A) (A) (A) (A) (A) (A) (A) (A) (A) (A) (A)
                 (A) (A) (A) (A) (A) (A) (A) (A) (A) (A) (A) (A)
                 (A) (A) (A) (A) (A) (A) (A) (A) (A) (A) (A) (A)
                 (A) (A) (A) (A) (A) (A) (A) (A) (A) (A) (A) (A)
                 (A) (A) (A) (A) (A) (A) (A) (A) (A) (A) (A) (A)
                 (A) (A) (A) (A)
       Virtual   (A) (A) (A) (A) (A) (A) (A) (A) (A) (A) (A) (A)
                 (A) (A) (A) (A) (A) (A) (A) (A) (A) (A) (A) (A)
                 (A) (A) (A) (A) (A) (A) (A) (A) (A) (A) (A) (A)
                 (A) (A) (A) (A) (A) (A) (A) (A) (A) (A) (A) (A)
                 (A) (A) (A) (A) (A) (A) (A) (A) (A) (A) (A) (A)
                 (A) (A) (A) (A) (A) (A) (A) (A) (A) (A) (A) (A)
                 (A) (A) (A) (A) (A) (A) (A) (A) (A) (A) (A) (A)
                 (A) (A) (A) (A) (A) (A) (A) (A) (A) (A) (A) (A)
                 (A) (A) (A) (A) (A) (A) (A) (A) (A) (A) (A) (A)
                 (A) (A) (A) (A) (A) (A) (A) (A) (A) (A) (A) (A)
                 (A) (A) (A) (A) (A) (A) (A) (A) (A) (A) (A) (A)
                 (A) (A) (A) (A) (A) (A) (A) (A) (A) (A) (A) (A)
                 (A) (A) (A) (A) (A) (A) (A) (A) (A) (A) (A) (A)
                 (A) (A) (A) (A) (A) (A) (A) (A) (A) (A) (A) (A)
                 (A) (A) (A) (A) (A) (A) (A) (A) (A) (A) (A) (A)
                 (A) (A) (A) (A) (A) (A) (A) (A) (A) (A) (A) (A)
                 (A) (A) (A) (A) (A) (A) (A) (A) (A) (A) (A) (A)
                 (A) (A) (A) (A) (A) (A) (A) (A) (A) (A) (A) (A)
                 (A) (A) (A) (A) (A) (A) (A) (A) (A) (A) (A) (A)
                 (A) (A) (A) (A) (A) (A) (A) (A) (A) (A) (A) (A)
                 (A) (A) (A) (A) (A) (A) (A) (A) (A) (A) (A) (A)
                 (A) (A) (A) (A) (A) (A) (A) (A) (A) (A) (A) (A)
                 (A) (A) (A) (A) (A) (A) (A) (A) (A) (A) (A) (A)
                 (A) (A) (A) (A) (A) (A) (A) (A) (A) (A) (A) (A)
                 (A) (A) (A) (A) (A) (A) (A) (A) (A) (A) (A) (A)
                 (A) (A) (A) (A) (A) (A) (A) (A) (A) (A) (A) (A)
                 (A) (A) (A) (A) (A) (A) (A) (A) (A) (A) (A) (A)
                 (A) (A) (A) (A) (A)
 The electronic state is 1-A.
 Alpha  occ. eigenvalues --  -19.19781 -19.15139 -19.13041 -14.38705 -14.38287
 Alpha  occ. eigenvalues --  -10.33456 -10.29402 -10.25831 -10.22490 -10.22057
 Alpha  occ. eigenvalues --  -10.21869 -10.21328 -10.20847 -10.19401 -10.19315
 Alpha  occ. eigenvalues --  -10.19265 -10.18914 -10.18739 -10.18545 -10.18011
 Alpha  occ. eigenvalues --  -10.16698  -1.08393  -1.04580  -1.00385  -0.98303
 Alpha  occ. eigenvalues --   -0.95425  -0.84601  -0.83069  -0.80752  -0.77169
 Alpha  occ. eigenvalues --   -0.73986  -0.72538  -0.71591  -0.70492  -0.68065
 Alpha  occ. eigenvalues --   -0.63547  -0.62213  -0.60568  -0.59494  -0.56762
 Alpha  occ. eigenvalues --   -0.54875  -0.54475  -0.53117  -0.49865  -0.49085
 Alpha  occ. eigenvalues --   -0.48415  -0.48088  -0.47296  -0.46395  -0.45526
 Alpha  occ. eigenvalues --   -0.45196  -0.44415  -0.44074  -0.43936  -0.42538
 Alpha  occ. eigenvalues --   -0.42143  -0.41518  -0.40419  -0.40048  -0.39200
 Alpha  occ. eigenvalues --   -0.38571  -0.37925  -0.36558  -0.36179  -0.35670
 Alpha  occ. eigenvalues --   -0.35396  -0.34434  -0.32814  -0.29578  -0.29445
 Alpha  occ. eigenvalues --   -0.28205  -0.27827  -0.25996  -0.22414  -0.21751
 Alpha  occ. eigenvalues --   -0.20896
 Alpha virt. eigenvalues --   -0.05856  -0.02856  -0.02080   0.01774   0.02716
 Alpha virt. eigenvalues --    0.05267   0.07163   0.08140   0.10354   0.11157
 Alpha virt. eigenvalues --    0.12474   0.13380   0.13898   0.14175   0.14671
 Alpha virt. eigenvalues --    0.15156   0.16234   0.16467   0.16545   0.16939
 Alpha virt. eigenvalues --    0.17652   0.17921   0.18529   0.19322   0.19456
 Alpha virt. eigenvalues --    0.20805   0.21079   0.22535   0.23781   0.24728
 Alpha virt. eigenvalues --    0.25498   0.26716   0.27138   0.28075   0.28599
 Alpha virt. eigenvalues --    0.29569   0.31126   0.32416   0.33477   0.34766
 Alpha virt. eigenvalues --    0.35265   0.35980   0.38738   0.39959   0.44838
 Alpha virt. eigenvalues --    0.45545   0.47924   0.49093   0.49774   0.50660
 Alpha virt. eigenvalues --    0.51273   0.52185   0.52616   0.53284   0.53957
 Alpha virt. eigenvalues --    0.54583   0.55354   0.55671   0.56706   0.58230
 Alpha virt. eigenvalues --    0.58665   0.58915   0.59461   0.60782   0.61043
 Alpha virt. eigenvalues --    0.61502   0.62110   0.62931   0.63099   0.63712
 Alpha virt. eigenvalues --    0.64492   0.65424   0.66672   0.66849   0.68018
 Alpha virt. eigenvalues --    0.70076   0.70259   0.71270   0.73774   0.74189
 Alpha virt. eigenvalues --    0.75320   0.76277   0.77091   0.79217   0.79459
 Alpha virt. eigenvalues --    0.80375   0.80554   0.81350   0.82161   0.82239
 Alpha virt. eigenvalues --    0.82641   0.83387   0.84071   0.84469   0.85740
 Alpha virt. eigenvalues --    0.86149   0.86566   0.87355   0.89029   0.89334
 Alpha virt. eigenvalues --    0.89581   0.90749   0.91585   0.92581   0.93240
 Alpha virt. eigenvalues --    0.93951   0.95622   0.96367   0.97860   0.98382
 Alpha virt. eigenvalues --    0.99718   1.01011   1.01699   1.03101   1.03901
 Alpha virt. eigenvalues --    1.04535   1.05195   1.05984   1.08112   1.09167
 Alpha virt. eigenvalues --    1.10978   1.11674   1.13105   1.14087   1.14740
 Alpha virt. eigenvalues --    1.16062   1.17123   1.20201   1.21174   1.22527
 Alpha virt. eigenvalues --    1.23114   1.23593   1.24565   1.26690   1.29358
 Alpha virt. eigenvalues --    1.30413   1.31706   1.33079   1.35028   1.35936
 Alpha virt. eigenvalues --    1.37281   1.38045   1.38730   1.39351   1.39831
 Alpha virt. eigenvalues --    1.40630   1.41953   1.42603   1.45016   1.46878
 Alpha virt. eigenvalues --    1.47771   1.50070   1.50988   1.52253   1.55742
 Alpha virt. eigenvalues --    1.57804   1.59165   1.59906   1.61343   1.63660
 Alpha virt. eigenvalues --    1.65437   1.67299   1.69012   1.71700   1.73511
 Alpha virt. eigenvalues --    1.74862   1.76942   1.77257   1.77949   1.79164
 Alpha virt. eigenvalues --    1.79694   1.81075   1.82286   1.82868   1.83883
 Alpha virt. eigenvalues --    1.85012   1.85376   1.85605   1.87030   1.88586
 Alpha virt. eigenvalues --    1.89315   1.90309   1.91056   1.91806   1.93531
 Alpha virt. eigenvalues --    1.94175   1.94707   1.96051   1.96544   1.97945
 Alpha virt. eigenvalues --    1.98206   1.99265   1.99373   2.00401   2.01284
 Alpha virt. eigenvalues --    2.01695   2.02972   2.04035   2.05014   2.05802
 Alpha virt. eigenvalues --    2.06756   2.07792   2.08995   2.09876   2.10517
 Alpha virt. eigenvalues --    2.12379   2.13389   2.14146   2.16612   2.17626
 Alpha virt. eigenvalues --    2.17852   2.17952   2.20759   2.21668   2.22744
 Alpha virt. eigenvalues --    2.23719   2.24278   2.25891   2.27126   2.28148
 Alpha virt. eigenvalues --    2.28688   2.29324   2.30220   2.33237   2.36193
 Alpha virt. eigenvalues --    2.37440   2.38268   2.39702   2.40947   2.41091
 Alpha virt. eigenvalues --    2.42762   2.42966   2.44273   2.45389   2.45479
 Alpha virt. eigenvalues --    2.46819   2.48996   2.49517   2.51050   2.52207
 Alpha virt. eigenvalues --    2.53529   2.54329   2.55139   2.56199   2.56620
 Alpha virt. eigenvalues --    2.58169   2.58641   2.59473   2.60133   2.61119
 Alpha virt. eigenvalues --    2.61664   2.61837   2.63561   2.63728   2.65223
 Alpha virt. eigenvalues --    2.66689   2.68952   2.69643   2.70473   2.70712
 Alpha virt. eigenvalues --    2.71874   2.72488   2.74297   2.75894   2.77633
 Alpha virt. eigenvalues --    2.79714   2.80131   2.81141   2.85159   2.86380
 Alpha virt. eigenvalues --    2.87300   2.88440   2.90385   2.90613   2.92828
 Alpha virt. eigenvalues --    2.93566   2.94827   2.98539   2.99162   3.00031
 Alpha virt. eigenvalues --    3.01631   3.03012   3.06592   3.07287   3.09315
 Alpha virt. eigenvalues --    3.09653   3.16244   3.18309   3.26143   3.27512
 Alpha virt. eigenvalues --    3.27760   3.30129   3.31452   3.35668   3.40018
 Alpha virt. eigenvalues --    3.43027   3.44873   3.46658   3.47703   3.48674
 Alpha virt. eigenvalues --    3.49544   3.50570   3.51947   3.55473   3.56732
 Alpha virt. eigenvalues --    3.59537   3.74224   3.88962   4.01372   4.08079
 Alpha virt. eigenvalues --    4.08818   4.14670   4.15465   4.20412   4.26728
 Alpha virt. eigenvalues --    4.33705   4.35683   4.38075   4.40745   4.43572
 Alpha virt. eigenvalues --    4.49485   4.52391   4.55024   4.59309   4.61364
 Alpha virt. eigenvalues --    4.65454   4.77779   4.85083   4.94425
          Condensed to atoms (all electrons):
               1          2          3          4          5          6
     1  N    7.311615   0.163739  -0.039157  -0.030613   0.002038  -0.055958
     2  C    0.163739   5.062971   0.383951   0.321680  -0.060123   0.333948
     3  H   -0.039157   0.383951   0.521903  -0.030141   0.001834  -0.031038
     4  C   -0.030613   0.321680  -0.030141   4.504430   0.475459  -0.037750
     5  O    0.002038  -0.060123   0.001834   0.475459   8.115888   0.000402
     6  C   -0.055958   0.333948  -0.031038  -0.037750   0.000402   5.066277
     7  H    0.005182  -0.038797  -0.000918  -0.005350   0.002373   0.373037
     8  H   -0.012577  -0.027990  -0.004800   0.004996   0.000012   0.381799
     9  C   -0.009668  -0.044455   0.004823  -0.015105  -0.000890   0.348668
    10  C    0.007211  -0.004365   0.000009  -0.001401  -0.000010  -0.080419
    11  H   -0.004985   0.000558  -0.000023   0.000074   0.000000  -0.003835
    12  C   -0.000894  -0.002991   0.000030   0.004823  -0.000318  -0.047881
    13  N   -0.000082   0.000057   0.000000  -0.000027   0.000000   0.004971
    14  H   -0.000003   0.000002   0.000000   0.000000   0.000000  -0.000063
    15  C    0.000096  -0.000013   0.000006  -0.000057   0.000002   0.010026
    16  C    0.000061  -0.000972  -0.000049   0.005793  -0.004801  -0.015425
    17  H    0.000024  -0.000568   0.000051   0.003631   0.007295   0.002796
    18  C    0.000000   0.000000   0.000000  -0.000021   0.000000  -0.000208
    19  H    0.000000   0.000000   0.000000   0.000000   0.000000   0.000002
    20  C    0.000000   0.000001   0.000000  -0.000007  -0.000010   0.000114
    21  H    0.000000   0.000000   0.000000   0.000002  -0.000003   0.000000
    22  C    0.000000   0.000000   0.000000  -0.000005   0.000001   0.000001
    23  H    0.000000   0.000000   0.000000   0.000000   0.000000   0.000000
    24  O   -0.002507  -0.064638   0.001894   0.219960  -0.070821  -0.003454
    25  H    0.322716  -0.028935   0.002929  -0.006300   0.000222   0.001278
    26  C   -0.000020   0.004314  -0.000069  -0.021741  -0.004820  -0.000224
    27  H    0.000001  -0.000115   0.000002   0.004948   0.000761  -0.000005
    28  H   -0.000041   0.000355   0.000010  -0.008618   0.012277  -0.000055
    29  H    0.000006   0.000265  -0.000037  -0.010486   0.003529   0.000464
    30  C    0.120840  -0.027803  -0.004409   0.004506  -0.000041  -0.000750
    31  C   -0.206461   0.009331   0.001937  -0.000066   0.000001  -0.000839
    32  C   -0.015480  -0.000504  -0.000010  -0.000024   0.000000  -0.000795
    33  C   -0.010976   0.001096  -0.000163  -0.000077   0.000000   0.000118
    34  O   -0.094686   0.004802   0.014991   0.000815   0.000002  -0.000644
    35  H   -0.000445   0.000057   0.000001   0.000001   0.000000  -0.000075
    36  H    0.001158   0.000119  -0.000086   0.000000   0.000000  -0.000346
    37  H    0.002017  -0.000049   0.000003   0.000001   0.000000  -0.000006
    38  H   -0.005770   0.000054  -0.000005  -0.000020   0.000000   0.000039
    39  H   -0.005175   0.001159   0.000012  -0.000006   0.000000  -0.000232
               7          8          9         10         11         12
     1  N    0.005182  -0.012577  -0.009668   0.007211  -0.004985  -0.000894
     2  C   -0.038797  -0.027990  -0.044455  -0.004365   0.000558  -0.002991
     3  H   -0.000918  -0.004800   0.004823   0.000009  -0.000023   0.000030
     4  C   -0.005350   0.004996  -0.015105  -0.001401   0.000074   0.004823
     5  O    0.002373   0.000012  -0.000890  -0.000010   0.000000  -0.000318
     6  C    0.373037   0.381799   0.348668  -0.080419  -0.003835  -0.047881
     7  H    0.580779  -0.028268  -0.027502   0.004641  -0.000054  -0.007514
     8  H   -0.028268   0.552754  -0.028386  -0.006709   0.002266   0.003278
     9  C   -0.027502  -0.028386   5.034618   0.503692  -0.037008   0.392746
    10  C    0.004641  -0.006709   0.503692   5.077762   0.345830   0.022359
    11  H   -0.000054   0.002266  -0.037008   0.345830   0.617149   0.004036
    12  C   -0.007514   0.003278   0.392746   0.022359   0.004036   4.795508
    13  N   -0.000077   0.000005  -0.063582   0.274288  -0.040869  -0.049698
    14  H    0.000002  -0.000002   0.004330  -0.029216  -0.001327   0.007709
    15  C   -0.000263  -0.000088   0.013136  -0.138303   0.004771   0.455038
    16  C    0.004093  -0.000035  -0.128976   0.019184  -0.000263   0.460819
    17  H    0.003248  -0.000009  -0.011079  -0.000110  -0.000004  -0.041132
    18  C   -0.000007   0.000004   0.016873   0.004686  -0.000126  -0.044806
    19  H    0.000000   0.000000  -0.000382   0.000007   0.000002   0.005530
    20  C   -0.000015   0.000000   0.010390  -0.000573   0.000005  -0.005038
    21  H    0.000001   0.000000  -0.000264   0.000006   0.000000   0.002523
    22  C    0.000002   0.000000  -0.000110  -0.000056   0.000002  -0.038735
    23  H    0.000000   0.000000   0.000003   0.000004   0.000000   0.000956
    24  O    0.000253  -0.000100   0.007051   0.000056   0.000019  -0.002202
    25  H   -0.000119  -0.000045   0.003069   0.000155  -0.000239   0.000125
    26  C    0.000015   0.000010   0.000241   0.000065  -0.000001  -0.004635
    27  H   -0.000001   0.000000  -0.000091   0.000000   0.000000   0.000064
    28  H   -0.000008   0.000000   0.000069  -0.000003   0.000000   0.000616
    29  H   -0.000035  -0.000001  -0.001421  -0.000020   0.000000  -0.016468
    30  C   -0.000055   0.002490   0.000259  -0.001379   0.000574   0.000008
    31  C    0.000266   0.002734  -0.003661  -0.010393   0.010988   0.000179
    32  C    0.000057   0.004054  -0.001654  -0.022974   0.023867   0.000132
    33  C   -0.000015   0.000075  -0.002535  -0.019798  -0.006686   0.000168
    34  O   -0.000120   0.004467   0.000059  -0.000029   0.000020  -0.000001
    35  H    0.000000  -0.000058   0.000254  -0.006043   0.007075   0.000002
    36  H   -0.000009   0.001508  -0.000062   0.000926  -0.001761  -0.000002
    37  H    0.000000   0.000004   0.000157  -0.000211   0.000445  -0.000002
    38  H    0.000000   0.000004   0.000027   0.000589   0.000984   0.000001
    39  H   -0.000012  -0.000137   0.001222   0.017049  -0.013287  -0.001446
              13         14         15         16         17         18
     1  N   -0.000082  -0.000003   0.000096   0.000061   0.000024   0.000000
     2  C    0.000057   0.000002  -0.000013  -0.000972  -0.000568   0.000000
     3  H    0.000000   0.000000   0.000006  -0.000049   0.000051   0.000000
     4  C   -0.000027   0.000000  -0.000057   0.005793   0.003631  -0.000021
     5  O    0.000000   0.000000   0.000002  -0.004801   0.007295   0.000000
     6  C    0.004971  -0.000063   0.010026  -0.015425   0.002796  -0.000208
     7  H   -0.000077   0.000002  -0.000263   0.004093   0.003248  -0.000007
     8  H    0.000005  -0.000002  -0.000088  -0.000035  -0.000009   0.000004
     9  C   -0.063582   0.004330   0.013136  -0.128976  -0.011079   0.016873
    10  C    0.274288  -0.029216  -0.138303   0.019184  -0.000110   0.004686
    11  H   -0.040869  -0.001327   0.004771  -0.000263  -0.000004  -0.000126
    12  C   -0.049698   0.007709   0.455038   0.460819  -0.041132  -0.044806
    13  N    7.023737   0.362761   0.243174   0.014489  -0.000080  -0.109496
    14  H    0.362761   0.435398  -0.033479  -0.000146   0.000005  -0.005506
    15  C    0.243174  -0.033479   4.768771  -0.068115   0.005523   0.476481
    16  C    0.014489  -0.000146  -0.068115   5.263319   0.370240  -0.065545
    17  H   -0.000080   0.000005   0.005523   0.370240   0.596901   0.000176
    18  C   -0.109496  -0.005506   0.476481  -0.065545   0.000176   5.021803
    19  H   -0.006990   0.003116  -0.036302   0.000723   0.000017   0.357090
    20  C   -0.000452  -0.000001  -0.045063   0.467789  -0.041732  -0.022683
    21  H    0.000004   0.000000   0.001287  -0.037578  -0.004451   0.004320
    22  C    0.006139  -0.000072  -0.003728  -0.025953   0.004265   0.516130
    23  H   -0.000126  -0.000002   0.003008   0.004662  -0.000160  -0.037417
    24  O   -0.000100  -0.000003  -0.000636   0.001303  -0.001219   0.000060
    25  H   -0.000193  -0.000003   0.000020  -0.000020   0.000000   0.000002
    26  C   -0.000150  -0.000001   0.001413  -0.039514  -0.001431   0.001671
    27  H    0.000002   0.000000   0.000055   0.000423   0.000192  -0.000006
    28  H    0.000000   0.000000  -0.000011   0.001301  -0.000317   0.000002
    29  H    0.000073   0.000000  -0.000651   0.010734  -0.001564  -0.000915
    30  C   -0.000002   0.000001  -0.000003   0.000000   0.000000   0.000000
    31  C    0.000397  -0.000007  -0.000099   0.000003   0.000001   0.000000
    32  C    0.000475   0.000000  -0.000071   0.000002   0.000000   0.000000
    33  C   -0.002058   0.000110   0.000158   0.000005   0.000000   0.000004
    34  O    0.000000   0.000000   0.000000   0.000000   0.000000   0.000000
    35  H    0.000013   0.000005  -0.000002   0.000000   0.000000   0.000000
    36  H   -0.000001   0.000000   0.000000   0.000000   0.000000   0.000000
    37  H   -0.000007   0.000027  -0.000003   0.000000   0.000000   0.000000
    38  H    0.000065  -0.000004  -0.000011   0.000000   0.000000   0.000000
    39  H    0.002889   0.000170   0.000687  -0.000027  -0.000001  -0.000001
              19         20         21         22         23         24
     1  N    0.000000   0.000000   0.000000   0.000000   0.000000  -0.002507
     2  C    0.000000   0.000001   0.000000   0.000000   0.000000  -0.064638
     3  H    0.000000   0.000000   0.000000   0.000000   0.000000   0.001894
[...]
 .00040354,0.19124214,0.00004653,-0.00052956,-0.00013902,-0.00011080,-0
 .00059057,-0.00055369,0.00001442,-0.00000959,0.00004963,-0.00006446,-0
 .00003080,0.00019115,0.00011876,-0.00005506,-0.00003838,-0.00012957,0.
 00007027,-0.00006403,-0.00000358,-0.00002440,-0.00002669,-0.00001207,0
 .00000169,-0.00001467,0.00000453,0.00001180,-0.00000153,-0.00001588,-0
 .00000885,0.00001335,-0.00000530,-0.00001102,-0.00000895,-0.00000982,-
 0.00000929,0.00000631,0.00002217,-0.00000188,-0.00000713,-0.00000465,-
 0.00000115,0.00000178,0.00000003,0.00002028,-0.00000461,-0.00000125,0.
 00000373,0.00000080,-0.00000320,-0.00000085,-0.00000147,-0.00000520,-0
 .00000453,0.00000168,-0.00000019,0.00000243,-0.00000039,0.00000302,0.0
 0000400,-0.00000208,0.00000286,-0.00000124,-0.00000025,0.00000717,-0.0
 0000285,-0.00000130,0.00000297,0.00000113,-0.00000076,0.00004585,-0.00
 001303,-0.00007908,0.00006703,0.00030455,0.00017469,-0.00003033,0.0000
 1139,0.00003082,0.00000269,0.00000206,-0.00000567,0.00000683,-0.000003
 69,0.00000018,0.00000516,-0.00000306,-0.00000190,0.00165784,0.00958263
 ,0.00476870,0.00057106,0.00480360,0.00343877,0.08439867,-0.09220165,0.
 08289739,-0.00183378,-0.00592733,-0.00300082,0.00039795,-0.00072726,-0
 .00068916,-0.09236362,0.08521711,0.00002507,-0.00052724,0.00053188,0.0
 0011619,-0.00037075,-0.00013361,0.00004509,-0.00003730,0.00001488,0.00
 007038,-0.00008855,0.00003545,-0.00000933,0.00001212,-0.00000849,-0.00
 006242,0.00005714,-0.00004953,-0.00001454,-0.00001876,-0.00001872,0.00
 001582,0.00001796,0.00002762,0.00001448,0.00001649,-0.00001768,-0.0000
 0407,0.00003679,-0.00000819,-0.00000262,0.00001214,-0.00000369,0.00001
 508,-0.00001086,-0.00000041,-0.00002099,-0.00003687,0.00001317,-0.0000
 1025,0.00000716,0.00000275,-0.00000506,-0.00001089,0.00000527,0.000000
 86,-0.00000174,-0.00000272,0.00000479,-0.00000035,0.00000191,0.0000041
 3,0.00000186,-0.00000265,-0.00000075,-0.00000307,0.00000180,-0.0000001
 1,-0.00000300,0.00000007,-0.00000131,0.00000093,0.00000083,-0.00000387
 ,0.00000141,-0.00000023,-0.00000246,-0.00000099,0.00000125,-0.00004934
 ,0.00001449,0.00003374,-0.00004609,0.00012880,0.00013145,0.00002621,-0
 .00000347,-0.00001983,-0.00000029,-0.00000028,0.00000274,-0.00000380,0
 .00000262,0.00000183,-0.00000536,0.00000106,0.00000170,0.00309396,0.00
 537003,-0.00010046,0.00828366,-0.00213660,0.00768914,-0.11661582,0.083
 89131,-0.16235475,0.00035939,-0.00355565,-0.00051961,-0.00193857,-0.00
 047198,0.00073770,0.12383662,-0.09103279,0.16191341,0.00169177,0.00017
 084,-0.00096395,-0.00010034,0.00020206,-0.00020593,-0.00010556,0.00006
 592,0.00001650,-0.00020469,0.00009653,0.00024697,0.00013137,-0.0000646
 7,-0.00006593,0.00001498,-0.00006156,0.00005505,0.00003264,0.00002407,
 0.00001932,-0.00003635,-0.00003587,-0.00006970,-0.00002113,-0.00003286
 ,0.00003099,-0.00002748,-0.00007647,0.00001781,-0.00000526,-0.00002289
 ,0.00001121,-0.00003422,0.00001262,0.00000517,0.00005699,0.00007009,-0
 .00005432,0.00001358,-0.00000378,0.00001235,0.00001098,0.00003545,-0.0
 0000866,-0.00000098,0.00000295,0.00000262,-0.00001029,0.00000073,-0.00
 000205,-0.00000922,-0.00000451,0.00000099,0.00000229,0.00000751,-0.000
 00102,0.00000296,0.00000511,-0.00000350,0.00000452,-0.00000179,-0.0000
 0073,0.00001320,-0.00000298,-0.00000335,0.00000557,0.00000243,-0.00000
 134,0.00012825,-0.00001913,-0.00021546,0.00033747,-0.00009703,0.000128
 47,-0.00005628,0.00000768,0.00007212,0.00001142,0.00000029,-0.00001863
 ,0.00001439,-0.00000645,-0.00000544,0.00001314,-0.00000510,-0.00000805
 ,-0.00250819,-0.00292687,0.00398824,-0.00496405,-0.01199245,0.02868270
 ,-0.08346934,-0.02850951,0.07666055,-0.00407870,0.00328060,0.00007205,
 0.00174139,0.00073300,-0.00241892,0.00852167,0.00723683,-0.01714376,0.
 08355289,-0.00060553,0.00022090,0.00036310,0.00011281,0.00026274,0.000
 30325,0.00003416,-0.00000206,-0.00003028,0.00004680,0.00001829,-0.0000
 5243,-0.00008126,0.00001830,0.00000102,0.00005245,0.00000002,0.0000263
 4,-0.00000460,-0.00000043,0.00000908,0.00000726,0.00001744,0.00001158,
 0.00002084,0.00001032,-0.00001985,-0.00002201,0.00005825,-0.00000556,-
 0.00001190,-0.00000236,-0.00000547,0.00001123,-0.00002987,0.00000320,-
 0.00000162,-0.00006890,0.00003298,-0.00001883,-0.00000135,-0.00000354,
 -0.00000881,0.00001312,-0.00000251,-0.00000929,0.00000746,-0.00000686,
 0.00000540,-0.00000048,0.00000584,-0.00000532,-0.00000679,0.00000361,-
 0.00000167,-0.00000159,0.00000087,0.00000857,0.00000331,-0.00000572,0.
 00000293,-0.00000020,0.00000086,0.00000684,-0.00000449,-0.00000085,0.0
 0000079,-0.00000050,0.00000043,-0.00005258,0.00000071,0.00001939,-0.00
 009665,-0.00002062,-0.00003157,0.00002909,0.00000338,-0.00001573,0.000
 00143,0.00000276,0.00000238,-0.00000254,-0.00000088,0.00000203,-0.0000
 0782,0.00000297,0.00000048,-0.00040922,-0.00589166,-0.00317421,0.00025
 239,0.00564493,-0.00149458,-0.03131652,-0.08098640,0.10161887,0.002691
 39,0.00999422,0.00472843,0.00084140,-0.00083608,0.00040023,-0.00407218
 ,-0.00064383,0.00862215,0.03274414,0.07277829,0.00068254,0.00013951,-0
 .00017946,-0.00002338,0.00017968,0.00000739,-0.00002884,0.00000853,0.0
 0002050,-0.00004207,0.00003623,0.00001558,0.00001297,-0.00001836,-0.00
 000617,0.00002303,-0.00000654,0.00004091,0.00000410,0.00000642,0.00000
 918,0.00000031,-0.00000503,-0.00000586,-0.00000175,-0.00000444,0.00000
 436,0.00000809,-0.00000319,0.00000347,0.00000365,-0.00000145,-0.000000
 08,-0.00000725,-0.00000488,0.00000200,0.00000871,-0.00000230,0.0000054
 3,-0.00000250,-0.00000318,-0.00000511,-0.00000537,0.00000968,-0.000002
 55,-0.00000318,0.00000353,-0.00000080,-0.00000107,-0.00000013,0.000000
 91,-0.00000295,-0.00000284,0.00000202,-0.00000042,0.00000091,-0.000000
 59,0.00000191,0.00000221,-0.00000160,0.00000194,-0.00000075,-0.0000001
 1,0.00000272,-0.00000158,0.00000010,0.00000173,0.00000066,-0.00000072,
 0.00002262,-0.00002021,-0.00002458,0.00006175,0.00000249,-0.00007642,-
 0.00001060,0.00000666,0.00001308,0.00000156,0.00000259,-0.00000105,0.0
 0000441,-0.00000367,0.00000026,0.00000114,-0.00000065,-0.00000166,-0.0
 0129487,-0.00230735,-0.00231799,0.00339629,0.00346075,-0.00346813,0.08
 229651,0.10031450,-0.27721978,0.00119280,0.00455974,0.00303236,-0.0023
 3383,0.00048890,-0.00055280,0.00615798,0.00422640,-0.00827768,-0.09039
 706,-0.11049607,0.28890978,-0.00009672,0.00006540,-0.00021065,0.000482
 39,0.00000823,0.00005868,-0.00009092,0.00004699,-0.00008410,0.00012250
 ,-0.00013074,0.00007578,-0.00012116,0.00009076,-0.00003420,-0.00002944
 ,0.00003074,0.00000479,-0.00001480,-0.00001122,-0.00001707,0.00000172,
 -0.00000742,0.00000585,0.00002778,-0.00004524,-0.00003343,-0.00003919,
 0.00006174,-0.00005879,-0.00000976,0.00002793,0.00003837,0.00003022,0.
 00001044,-0.00000943,-0.00002742,-0.00002696,-0.00000705,-0.00001110,0
 .00002278,0.00000057,-0.00000951,-0.00003275,0.00002090,0.00001157,-0.
 00001353,-0.00000760,0.00000916,0.00000105,0.00000667,0.00002371,0.000
 01531,-0.00001007,-0.00000155,-0.00000934,0.00000211,-0.00000815,-0.00
 001583,0.00000444,-0.00000474,0.00000236,0.00000162,-0.00002155,0.0000
 1181,0.00000177,-0.00000762,-0.00000217,0.00000198,-0.00011639,0.00006
 880,-0.00001276,0.00067231,-0.00025408,0.00005689,0.00010001,-0.000027
 51,-0.00008399,0.00000544,-0.00000437,0.00000084,-0.00001492,0.0000113
 0,0.00000334,-0.00001703,0.00000452,0.00000431,-0.00250848,-0.00052180
 ,0.00257217,0.01003582,-0.00563820,0.00746537,0.00083420,-0.00092156,0
 .00138562,-0.19585321,0.08173276,-0.11004526,0.00102018,-0.00044748,0.
 00048406,0.00005748,0.00003256,-0.00002291,0.00016427,0.00000725,-0.00
 015034,0.21054067,0.00023540,0.00043953,0.00004314,-0.00003038,0.00026
 918,-0.00013434,-0.00006338,0.00004746,-0.00001565,-0.00009351,0.00003
 590,0.00000384,0.00008622,-0.00005334,0.00001029,0.00002774,-0.0000739
 5,0.00004765,0.00001470,0.00002748,0.00001824,-0.00000757,-0.00000611,
 -0.00001384,-0.00000218,-0.00005175,0.00001102,-0.00004333,-0.00003285
 ,-0.00002514,-0.00000875,0.00000977,0.00003180,-0.00000306,0.00001767,
 -0.00000203,0.00003469,0.00005431,-0.00005011,0.00000213,0.00000981,0.
 00000958,-0.00000560,0.00000288,0.00000887,0.00000906,-0.00000694,0.00
 000431,-0.00000661,0.00000088,-0.00000384,0.00001008,0.00000682,-0.000
 00595,0.00000026,0.00000113,0.00000030,-0.00000657,-0.00000440,0.00000
 348,-0.00000044,-0.00000062,-0.00000015,-0.00000634,0.00000487,-0.0000
 0075,0.00000091,0.00000144,-0.00000023,0.00009773,0.00000563,-0.000008
 06,-0.00009941,-0.00099343,-0.00020409,-0.00005509,0.00001193,0.000044
 40,-0.00000417,-0.00000189,-0.00000343,0.00000623,-0.00000238,-0.00000
 194,0.00001507,-0.00000577,-0.00000245,-0.00174164,0.00107950,0.000832
 70,0.00837175,-0.00546091,0.00647595,0.00067648,0.00000664,-0.00112526
 ,0.08045961,-0.09125501,0.05925106,0.00029175,-0.00055692,0.00095852,-
 0.00053858,0.00043487,0.00006633,-0.00003816,-0.00012108,-0.00022541,-
 0.08760993,0.09463351,-0.00031454,0.00001932,0.00071469,0.00003014,-0.
 00011568,0.00034492,0.00010220,-0.00002492,-0.00004230,0.00012257,-0.0
 0002075,-0.00029556,-0.00008678,0.00002771,0.00008153,-0.00000233,0.00
 002243,-0.00000743,-0.00001908,-0.00000840,-0.00001235,0.00001933,0.00
 002911,0.00004161,0.00002328,0.00001080,-0.00002200,-0.00000173,0.0000
 5354,-0.00002442,-0.00000485,0.00002622,0.00000573,0.00002561,-0.00001
 288,-0.00000337,-0.00002686,-0.00004926,0.00002663,-0.00001855,0.00000
 653,-0.00000705,-0.00001873,-0.00002073,0.00000963,0.00000144,-0.00000
 210,-0.00000085,0.00000574,-0.00000063,-0.00000007,0.00000987,0.000004
 02,-0.00000211,-0.00000219,-0.00000479,0.00000122,-0.00000307,-0.00000
 416,0.00000351,-0.00000245,0.00000055,0.00000030,-0.00001058,0.0000028
 3,0.00000204,-0.00000298,-0.00000113,0.00000068,-0.00005690,0.00001015
 ,0.00019471,-0.00030490,-0.00018209,-0.00069923,0.00001012,0.00000100,
 -0.00002944,-0.00001259,-0.00000073,0.00001470,-0.00000649,0.00000198,
 0.00000175,-0.00000261,0.00000205,0.00000536,0.00500215,0.00032438,-0.
 00159171,-0.02163798,0.01210176,-0.01702013,-0.00183665,-0.00051706,0.
 00138523,-0.10754024,0.05878976,-0.12637105,-0.00104058,0.00125690,-0.
 00218941,0.00127026,-0.00014939,0.00016524,-0.00008527,-0.00022447,0.0
 0029513,0.11601888,-0.06665450,0.13750709,0.00021009,0.00001339,-0.000
 37400,-0.00010229,0.00000463,-0.00014382,0.00000726,-0.00000112,0.0000
 4669,-0.00002691,0.00011895,-0.00013676,0.00009831,-0.00010019,0.00006
 565,0.00000839,-0.00001666,0.00001706,0.00001841,0.00001130,0.00000442
 ,-0.00000821,-0.00000463,-0.00002066,-0.00001678,-0.00002359,0.0000225
 0,-0.00001515,-0.00005564,-0.00000569,-0.00000938,-0.00000278,0.000032
 59,-0.00001301,0.00001871,0.00000288,0.00002534,0.00005728,-0.00004410
 ,0.00001779,0.00000383,0.00001448,0.00000462,-0.00000065,-0.00000269,0
 .00000273,0.00000077,0.00000670,-0.00000770,0.00000023,-0.00000591,0.0
 0000078,0.00000136,0.00000060,0.00000080,0.00000255,-0.00000116,-0.000
 00573,0.00000143,0.00000330,0.00000064,-0.00000115,-0.00000109,-0.0000
 0225,0.00000085,0.00000107,0.00000192,0.00000154,-0.00000112,0.0001509
 0,-0.00010491,0.00013087,-0.00033442,0.00013295,-0.00123047,-0.0000952
 9,0.00003897,0.00005530,-0.00001260,0.00001333,0.00000619,0.00001876,-
 0.00001427,0.00000534,0.00001610,-0.00000880,-0.00000423,-0.00075423,0
 .00024300,-0.00059923,-0.00768082,0.00755731,0.00837554,0.00062384,-0.
 00085722,0.00209695,-0.09104192,0.08096177,0.05566016,0.00017927,-0.00
 024221,0.00022650,0.00035824,0.00079791,0.00042291,-0.00064765,-0.0012
 6099,-0.00034465,-0.00941513,0.01743866,0.01374339,0.09790315,0.000352
 83,0.00007333,0.00044636,-0.00020388,0.00001875,0.00015197,0.00004492,
 -0.00000446,0.00004898,0.00002564,0.00009871,-0.00026670,0.00004473,-0
 .00005908,0.00010695,-0.00000701,-0.00005654,0.00000430,0.00000518,0.0
 0001848,0.00000031,0.00000221,0.00000881,0.00001220,-0.00002164,-0.000
 01933,0.00001245,0.00000243,-0.00005914,-0.00001797,-0.00000863,0.0000
 0574,0.00005353,-0.00000181,0.00004235,-0.00000526,-0.00000604,0.00007
 931,-0.00004842,0.00003718,0.00000704,0.00001924,0.00001874,-0.0000370
 1,0.00000315,0.00001108,-0.00000460,0.00001089,-0.00000534,0.00000084,
 -0.00000872,0.00000921,0.00000823,0.00000050,0.00000132,-0.00000135,-0
 .00000266,-0.00001617,-0.00000396,0.00001210,-0.00000472,0.00000020,-0
 .00000248,-0.00001709,0.00000689,0.00000585,-0.00000317,-0.00000024,-0
 .00000163,-0.00000644,-0.00008482,0.00018971,-0.00034212,-0.00015869,-
 0.00048063,-0.00003999,0.00002410,-0.00004397,-0.00001985,0.00001252,0
 .00002500,0.00000871,-0.00000904,0.00001031,0.00000371,-0.00000603,0.0
 0000555,0.00115078,0.00016926,-0.00014526,-0.00592007,0.01271889,0.006
 84028,-0.00070450,-0.00059903,0.00125381,0.07991761,-0.18684300,-0.100
 66465,-0.00039082,-0.00007767,-0.00011521,-0.00008613,0.00038329,0.000
 13917,-0.00055376,-0.00089806,-0.00038387,0.00370934,-0.00913935,-0.00
 630348,-0.08730117,0.20166204,-0.00089118,0.00075586,0.00097172,-0.000
 60233,0.00024392,-0.00007739,0.00006884,-0.00004489,0.00005771,-0.0001
 2061,0.00012512,-0.00029490,0.00013426,-0.00010397,0.00010328,0.000080
 17,-0.00009336,0.00003152,0.00002402,0.00003572,0.00003344,-0.00000016
 ,0.00001025,0.00000485,-0.00003139,-0.00001659,0.00004789,0.00001604,-
 0.00008401,0.00000181,0.00000962,0.00000531,0.00001514,-0.00001834,0.0
 0002467,0.00000275,0.00002829,0.00008706,-0.00004103,0.00001776,-0.000
 00463,0.00000135,-0.00000547,-0.00000056,-0.00000180,0.00000650,-0.000
 00203,0.00001437,-0.00001289,-0.00000020,-0.00001281,0.00000199,0.0000
 0324,-0.00000006,0.00000080,0.00000430,-0.00000230,-0.00000896,0.00000
 271,0.00000705,-0.00000047,-0.00000203,-0.00000234,-0.00000299,0.00000
 153,0.00000173,0.00000302,0.00000225,-0.00000226,0.00020717,-0.0000585
 6,0.00015520,-0.00137293,-0.00076622,-0.00152419,-0.00013621,0.0000267
 7,0.00011493,-0.00000898,0.00000094,0.00000224,0.00001544,-0.00001048,
 -0.00000757,0.00003136,-0.00000830,-0.00000884,0.00319731,-0.00095346,
 0.00008684,0.01351263,-0.01971857,-0.01534537,-0.00082409,0.00168275,-
 0.00316434,0.05648647,-0.10230023,-0.12142426,-0.00092834,0.00034170,0
 .00038260,-0.00005679,-0.00073334,-0.00025657,0.00116216,0.00145868,0.
 00080444,-0.00670091,0.01372904,0.01060452,-0.06501421,0.11063462,0.13
 183615,0.00037782,0.00047394,-0.00035405,0.00016699,0.00015925,-0.0001
 1585,-0.00004750,0.00005078,-0.00003435,-0.00003431,0.00001249,0.00000
 742,0.00006341,-0.00002495,0.00001335,0.00000641,-0.00006115,0.0000264
 5,0.00001077,0.00001910,0.00001265,-0.00001113,-0.00001246,-0.00001270
 ,-0.00007079,0.00002016,0.00003572,0.00008914,-0.00011186,0.00003835,-
 0.00001146,0.00000337,0.00006282,-0.00000760,0.00005115,-0.00001174,-0
 .00004174,0.00008519,-0.00005118,0.00005456,0.00000392,0.00003238,0.00
 003718,-0.00003177,-0.00001227,-0.00000048,-0.00000305,0.00000866,-0.0
 0000634,0.00000174,-0.00000517,-0.00000533,0.00000418,0.00000066,0.000
 00419,0.00000423,-0.00000016,-0.00000707,0.00000322,0.00000221,-0.0000
 0307,0.00000090,-0.00000056,-0.00000254,-0.00000117,0.00000190,-0.0000
 0072,0.00000037,-0.00000037,0.00002165,-0.00001506,-0.00000907,0.00007
 929,0.00040811,-0.00072324,-0.00003439,0.00000122,0.00002391,-0.000001
 41,0.00000245,-0.00000066,0.00000718,-0.00000293,-0.00000107,0.0000075
 1,-0.00000437,-0.00000296,-0.00170626,0.00067616,-0.00033314,-0.010073
 81,-0.00731623,0.00154051,0.00087138,-0.00138021,0.00186283,-0.1691937
 2,-0.12457576,-0.03096022,0.00050305,-0.00012782,0.00022454,0.00006653
 ,-0.00084912,-0.00037092,-0.00018598,0.00111217,0.00076334,-0.01572064
 ,-0.01741375,-0.00334607,0.01054212,0.01031474,0.00173338,0.18425712,0
 .00066819,0.00056736,-0.00009691,0.00061570,0.00012258,0.00002384,-0.0
 0013347,0.00009371,-0.00014121,0.00009575,-0.00018980,0.00014836,-0.00
 013400,0.00012156,-0.00006960,-0.00000067,0.00002240,0.00005287,-0.000
 01527,-0.00000121,-0.00001831,-0.00000203,-0.00000909,-0.00000238,0.00
 002471,-0.00008785,-0.00003425,-0.00007506,0.00007672,-0.00007846,-0.0
 0001086,0.00004158,0.00004692,0.00005442,0.00001046,-0.00002163,-0.000
 02388,-0.00002881,-0.00001103,-0.00002458,0.00002120,0.00000683,-0.000
 00911,-0.00003082,0.00002877,0.00000947,-0.00001991,-0.00001035,0.0000
 0861,0.00000220,0.00000816,0.00002563,0.00001705,-0.00001805,-0.000000
 03,-0.00000604,0.00000624,-0.00000325,-0.00001553,0.00000003,-0.000006
 29,0.00000366,0.00000348,-0.00001898,0.00000803,-0.00000193,-0.0000065
 7,-0.00000198,0.00000402,-0.00005295,0.00015344,-0.00004545,0.00113816
 ,-0.00198824,0.00055326,0.00009879,-0.00004067,-0.00006868,0.00000317,
 -0.00002324,-0.00000812,-0.00002561,0.00002354,-0.00000425,-0.00000960
 ,0.00000463,0.00000845,-0.00291858,0.00041149,0.00011943,-0.00671027,-
 0.00561903,-0.00025310,0.00085972,-0.00065382,0.00109038,-0.12494428,-
 0.17469814,-0.02865582,0.00094631,0.00004178,-0.00018269,-0.00003643,-
 0.00005336,-0.00008882,-0.00024300,0.00046022,0.00004251,0.00975806,0.
 01066549,0.00160613,-0.01742475,-0.01727736,-0.00427503,0.13852283,0.1
 8787582,-0.00095420,-0.00004288,-0.00007554,-0.00010332,0.00012034,-0.
 00005147,0.00000023,-0.00003345,0.00001042,-0.00007304,-0.00001597,0.0
 0013959,0.00002552,-0.00000749,-0.00005102,0.00000673,-0.00004732,-0.0
 0002358,0.00000656,-0.00001114,0.00002454,0.00000410,0.00000646,-0.000
 00505,-0.00006176,0.00022809,-0.00000389,0.00015051,-0.00007795,0.0002
 5251,0.00001366,-0.00005160,-0.00019735,0.00000558,-0.00005770,-0.0000
 0526,-0.00007926,-0.00008932,0.00003702,-0.00001337,-0.00001619,0.0000
 1340,0.00009763,0.00004182,-0.00003950,-0.00003843,0.00002817,-0.00000
 815,-0.00000085,-0.00000184,0.00000275,-0.00006110,-0.00003287,0.00001
 212,0.00000343,0.00001463,0.00000147,0.00003376,0.00004134,-0.00002268
 ,0.00000956,-0.00000121,0.00000037,0.00006171,-0.00003721,-0.00000802,
 0.00000909,0.00000108,-0.00000004,0.00002968,0.00003353,-0.00012079,-0
 .00057694,0.00074861,0.00028353,-0.00001013,-0.00000320,0.00005513,0.0
 0000410,-0.00001346,-0.00001793,0.00000131,0.00000228,-0.00001091,0.00
 000569,0.00000104,0.00000142,0.00127070,-0.00021889,0.00052537,0.02281
 680,0.02112369,0.00553697,-0.00017218,0.00154870,-0.00324109,-0.028975
 92,-0.02735568,-0.05342095,-0.00043808,-0.00030152,-0.00004246,0.00029
 758,0.00075548,0.00046100,0.00048779,-0.00204509,-0.00102376,-0.010726
 49,-0.01307333,-0.00308776,-0.01301130,-0.01149637,-0.00311550,0.02995
 467,0.03033639,0.05721511||-0.00000029,-0.00000004,0.00000056,-0.00000
 007,0.00000076,0.00000135,-0.00000019,0.00000074,0.00000114,0.,-0.0000
 0026,0.00000116,-0.00000009,0.00000025,0.00000199,-0.00000050,0.000000
 81,0.00000005,-0.00000038,0.00000148,0.00000081,-0.00000040,0.00000148
 ,0.00000010,-0.00000020,0.00000099,-0.00000016,-0.00000017,0.00000053,
 -0.00000104,-0.00000015,0.00000086,-0.00000139,-0.00000014,0.00000050,
 -0.00000046,0.00000006,0.00000053,-0.00000141,-0.00000007,0.00000028,-
 0.00000215,-0.00000019,0.00000028,-0.00000104,-0.00000013,0.00000057,0
 .00000041,-0.00000018,0.00000065,0.00000099,0.00000013,0.,-0.00000108,
 0.00000007,-0.00000014,-0.00000174,-0.00000009,0.00000006,0.00000032,-
 0.00000006,0.00000022,0.00000073,0.00000001,0.00000012,-0.00000054,0.0
 0000008,-0.00000024,-0.00000061,0.00000023,-0.00000053,0.00000093,0.00
 000026,-0.00000045,-0.00000006,0.00000027,-0.00000131,0.00000140,0.000
 00042,-0.00000175,0.00000129,0.00000023,-0.00000112,0.00000217,0.00000
 021,-0.00000086,0.00000136,0.00000006,0.00000014,0.00000022,0.,-0.0000
 0035,-0.00000057,0.00000006,-0.00000005,-0.00000065,0.00000017,-0.0000
 0136,-0.00000084,-0.00000028,0.00000088,0.00000027,0.00000018,-0.00000
 054,-0.00000103,-0.00000010,0.00000046,-0.00000050,0.00000040,-0.00000
 139,-0.00000100,0.00000042,-0.00000132,-0.00000011,0.00000041,-0.00000
 090,-0.00000088|||@


 IT'S WHAT A FELLER THINKS HE KNOWS THAT HURTS HIM...
                    ------
           KIN HUBBARD
 Job cpu time:       0 days  0 hours 28 minutes  0.0 seconds.
 File lengths (MBytes):  RWF=    645 Int=      0 D2E=      0 Chk=     14 Scr=      1
 Normal termination of Gaussian 09 at Thu Feb 08 18:52:46 2024.
