 Entering Link 1 = C:\G09W\l1.exe PID=     29736.
  
 Copyright (c) 1988,1990,1992,1993,1995,1998,2003,2009,2013,
            Gaussian, Inc.  All Rights Reserved.
  
 This is part of the Gaussian(R) 09 program.  It is based on
 the Gaussian(R) 03 system (copyright 2003, Gaussian, Inc.),
 the Gaussian(R) 98 system (copyright 1998, Gaussian, Inc.),
 the Gaussian(R) 94 system (copyright 1995, Gaussian, Inc.),
 the Gaussian 92(TM) system (copyright 1992, Gaussian, Inc.),
 the Gaussian 90(TM) system (copyright 1990, Gaussian, Inc.),
 the Gaussian 88(TM) system (copyright 1988, Gaussian, Inc.),
 the Gaussian 86(TM) system (copyright 1986, Carnegie Mellon
 University), and the Gaussian 82(TM) system (copyright 1983,
 Carnegie Mellon University). Gaussian is a federally registered
 trademark of Gaussian, Inc.
  
 This software contains proprietary and confidential information,
 including trade secrets, belonging to Gaussian, Inc.
  
 This software is provided under written license and may be
 used, copied, transmitted, or stored only in accord with that
 written license.
  
 The following legend is applicable only to US Government
 contracts under FAR:
  
                    RESTRICTED RIGHTS LEGEND
  
 Use, reproduction and disclosure by the US Government is
 subject to restrictions as set forth in subparagraphs (a)
 and (c) of the Commercial Computer Software - Restricted
 Rights clause in FAR 52.227-19.
  
 Gaussian, Inc.
 340 Quinnipiac St., Bldg. 40, Wallingford CT 06492
  
  
 ---------------------------------------------------------------
 Warning -- This program may not be used in any manner that
 competes with the business of Gaussian, Inc. or will provide
 assistance to any competitor of Gaussian, Inc.  The licensee
 of this program is prohibited from giving any competitor of
 Gaussian, Inc. access to this program.  By using this program,
 the user acknowledges that Gaussian, Inc. is engaged in the
 business of creating and licensing software in the field of
 computational chemistry and represents and warrants to the
 licensee that it is not a competitor of Gaussian, Inc. and that
 it will not use this program in any manner prohibited above.
 ---------------------------------------------------------------
  

 Cite this work as:
 Gaussian 09, Revision D.01,
 M. J. Frisch, G. W. Trucks, H. B. Schlegel, G. E. Scuseria, 
 M. A. Robb, J. R. Cheeseman, G. Scalmani, V. Barone, B. Mennucci, 
 G. A. Petersson, H. Nakatsuji, M. Caricato, X. Li, H. P. Hratchian, 
 A. F. Izmaylov, J. Bloino, G. Zheng, J. L. Sonnenberg, M. Hada, 
 M. Ehara, K. Toyota, R. Fukuda, J. Hasegawa, M. Ishida, T. Nakajima, 
 Y. Honda, O. Kitao, H. Nakai, T. Vreven, J. A. Montgomery, Jr., 
 J. E. Peralta, F. Ogliaro, M. Bearpark, J. J. Heyd, E. Brothers, 
 K. N. Kudin, V. N. Staroverov, T. Keith, R. Kobayashi, J. Normand, 
 K. Raghavachari, A. Rendell, J. C. Burant, S. S. Iyengar, J. Tomasi, 
 M. Cossi, N. Rega, J. M. Millam, M. Klene, J. E. Knox, J. B. Cross, 
 V. Bakken, C. Adamo, J. Jaramillo, R. Gomperts, R. E. Stratmann, 
 O. Yazyev, A. J. Austin, R. Cammi, C. Pomelli, J. W. Ochterski, 
 R. L. Martin, K. Morokuma, V. G. Zakrzewski, G. A. Voth, 
 P. Salvador, J. J. Dannenberg, S. Dapprich, A. D. Daniels, 
 O. Farkas, J. B. Foresman, J. V. Ortiz, J. Cioslowski, 
 and D. J. Fox, Gaussian, Inc., Wallingford CT, 2013.
 
 ******************************************
 Gaussian 09:  IA32W-G09RevD.01 24-Apr-2013
                26-Jan-2024 
 ******************************************
 %nprocshared=8
 Will use up to    8 processors via shared memory.
 %chk=Preview_31ihs.chk
 -------------------------------------------------------------
 #p opt=tight freq b3lyp/6-31g(d) guess=save geom=connectivity
 -------------------------------------------------------------
 1/7=10,14=-1,18=20,19=15,26=3,38=1,57=2/1,3;
 2/9=110,12=2,17=6,18=5,40=1/2;
 3/5=1,6=6,7=1,11=2,16=1,25=1,30=1,71=1,74=-5/1,2,3;
 4//1;
 5/5=2,38=5/2;
 6/7=2,8=2,9=2,10=2,28=1/1;
 7//1,2,3,16;
 1/7=10,14=-1,18=20,19=15,26=3/3(2);
 2/9=110/2;
 99//99;
 2/9=110/2;
 3/5=1,6=6,7=1,11=2,16=1,25=1,30=1,71=1,74=-5/1,2,3;
 4/5=5,16=3,69=1/1;
 5/5=2,38=5/2;
 7//1,2,3,16;
 1/7=10,14=-1,18=20,19=15,26=3/3(-5);
 2/9=110/2;
 6/7=2,8=2,9=2,10=2,19=2,28=1/1;
 99/9=1/99;
 Leave Link    1 at Fri Jan 26 11:38:21 2024, MaxMem=           0 cpu:         0.0
 (Enter C:\G09W\l101.exe)
 --------------------------------
 MATrp OptFreq tight B3LYP/6-31Gd
 --------------------------------
 Symbolic Z-matrix:
 Charge =  0 Multiplicity = 1
 N                     1.89043   0.43518   0.00468 
 C                     1.02164   1.12568  -0.92808 
 H                     1.65812   1.69331  -1.61332 
 C                     0.10842   2.12589  -0.23427 
 O                    -0.54395   2.95331  -0.83324 
 C                     0.1756    0.14835  -1.80785 
 H                    -0.41602   0.75938  -2.49883 
 H                     0.90047  -0.41108  -2.40719 
 C                    -0.70244  -0.79538  -1.03973 
 C                    -0.36648  -2.07066  -0.65467 
 H                     0.5416   -2.62677  -0.84565 
 C                    -2.04072  -0.56322  -0.54193 
 N                    -1.40324  -2.64295   0.05794 
 H                    -1.42017  -3.59093   0.39989 
 C                    -2.44906  -1.74593   0.1363 
 C                    -2.94201   0.51597  -0.61604 
 H                    -2.66292   1.43294  -1.12662 
 C                    -3.70661  -1.87215   0.73594 
 H                    -3.99889  -2.78543   1.24823 
 C                    -4.19252   0.39385  -0.02155 
 H                    -4.89544   1.22067  -0.07842 
 C                    -4.5712   -0.7875    0.64899 
 H                    -5.55676  -0.85325   1.10188 
 O                     0.06515   1.96077   1.10446 
 H                     1.54003   0.2837    0.93777 
 C                    -0.86409   2.8089    1.80612 
 H                    -0.69935   2.60829   2.86495 
 H                    -0.67133   3.85865   1.57443 
 H                    -1.88724   2.5522    1.52063 
 C                     3.09616  -0.0736   -0.39148 
 C                     3.89042  -0.78593   0.67762 
 C                     3.59024  -0.49958   1.94899 
 C                     4.96712  -1.77247   0.29302 
 O                     3.5004    0.05116  -1.54697 
 H                     4.11135  -0.9696    2.77849 
 H                     2.80601   0.2153    2.17469 
 H                     5.43828  -2.19859   1.18333 
 H                     4.56404  -2.60491  -0.29897 
 H                     5.75891  -1.30056  -0.30506 
 
 NAtoms=     39 NQM=       39 NQMF=       0 NMMI=      0 NMMIF=      0
                NMic=       0 NMicF=      0.
                    Isotopes and Nuclear Properties:
 (Nuclear quadrupole moments (NQMom) in fm**2, nuclear magnetic moments (NMagM)
  in nuclear magnetons)

  Atom         1           2           3           4           5           6           7           8           9          10
 IAtWgt=          14          12           1          12          16          12           1           1          12          12
 AtmWgt=  14.0030740  12.0000000   1.0078250  12.0000000  15.9949146  12.0000000   1.0078250   1.0078250  12.0000000  12.0000000
 NucSpn=           2           0           1           0           0           0           1           1           0           0
 AtZEff=   0.0000000   0.0000000   0.0000000   0.0000000   0.0000000   0.0000000   0.0000000   0.0000000   0.0000000   0.0000000
 NQMom=    2.0440000   0.0000000   0.0000000   0.0000000   0.0000000   0.0000000   0.0000000   0.0000000   0.0000000   0.0000000
 NMagM=    0.4037610   0.0000000   2.7928460   0.0000000   0.0000000   0.0000000   2.7928460   2.7928460   0.0000000   0.0000000
 AtZNuc=   7.0000000   6.0000000   1.0000000   6.0000000   8.0000000   6.0000000   1.0000000   1.0000000   6.0000000   6.0000000

  Atom        11          12          13          14          15          16          17          18          19          20
 IAtWgt=           1          12          14           1          12          12           1          12           1          12
 AtmWgt=   1.0078250  12.0000000  14.0030740   1.0078250  12.0000000  12.0000000   1.0078250  12.0000000   1.0078250  12.0000000
 NucSpn=           1           0           2           1           0           0           1           0           1           0
 AtZEff=   0.0000000   0.0000000   0.0000000   0.0000000   0.0000000   0.0000000   0.0000000   0.0000000   0.0000000   0.0000000
 NQMom=    0.0000000   0.0000000   2.0440000   0.0000000   0.0000000   0.0000000   0.0000000   0.0000000   0.0000000   0.0000000
 NMagM=    2.7928460   0.0000000   0.4037610   2.7928460   0.0000000   0.0000000   2.7928460   0.0000000   2.7928460   0.0000000
 AtZNuc=   1.0000000   6.0000000   7.0000000   1.0000000   6.0000000   6.0000000   1.0000000   6.0000000   1.0000000   6.0000000

  Atom        21          22          23          24          25          26          27          28          29          30
 IAtWgt=           1          12           1          16           1          12           1           1           1          12
 AtmWgt=   1.0078250  12.0000000   1.0078250  15.9949146   1.0078250  12.0000000   1.0078250   1.0078250   1.0078250  12.0000000
 NucSpn=           1           0           1           0           1           0           1           1           1           0
 AtZEff=   0.0000000   0.0000000   0.0000000   0.0000000   0.0000000   0.0000000   0.0000000   0.0000000   0.0000000   0.0000000
 NQMom=    0.0000000   0.0000000   0.0000000   0.0000000   0.0000000   0.0000000   0.0000000   0.0000000   0.0000000   0.0000000
 NMagM=    2.7928460   0.0000000   2.7928460   0.0000000   2.7928460   0.0000000   2.7928460   2.7928460   2.7928460   0.0000000
 AtZNuc=   1.0000000   6.0000000   1.0000000   8.0000000   1.0000000   6.0000000   1.0000000   1.0000000   1.0000000   6.0000000

  Atom        31          32          33          34          35          36          37          38          39
 IAtWgt=          12          12          12          16           1           1           1           1           1
 AtmWgt=  12.0000000  12.0000000  12.0000000  15.9949146   1.0078250   1.0078250   1.0078250   1.0078250   1.0078250
 NucSpn=           0           0           0           0           1           1           1           1           1
 AtZEff=   0.0000000   0.0000000   0.0000000   0.0000000   0.0000000   0.0000000   0.0000000   0.0000000   0.0000000
 NQMom=    0.0000000   0.0000000   0.0000000   0.0000000   0.0000000   0.0000000   0.0000000   0.0000000   0.0000000
 NMagM=    0.0000000   0.0000000   0.0000000   0.0000000   2.7928460   2.7928460   2.7928460   2.7928460   2.7928460
 AtZNuc=   6.0000000   6.0000000   6.0000000   8.0000000   1.0000000   1.0000000   1.0000000   1.0000000   1.0000000
 Leave Link  101 at Fri Jan 26 11:38:21 2024, MaxMem=    33554432 cpu:         0.0
 (Enter C:\G09W\l103.exe)

 GradGradGradGradGradGradGradGradGradGradGradGradGradGradGradGradGradGrad
 Berny optimization.
 Initialization pass.
                           ----------------------------
                           !    Initial Parameters    !
                           ! (Angstroms and Degrees)  !
 --------------------------                            --------------------------
 ! Name  Definition              Value          Derivative Info.                !
 --------------------------------------------------------------------------------
 ! R1    R(1,2)                  1.4497         estimate D2E/DX2                !
 ! R2    R(1,25)                 1.0082         estimate D2E/DX2                !
 ! R3    R(1,30)                 1.3673         estimate D2E/DX2                !
 ! R4    R(2,3)                  1.094          estimate D2E/DX2                !
 ! R5    R(2,4)                  1.5218         estimate D2E/DX2                !
 ! R6    R(2,6)                  1.5636         estimate D2E/DX2                !
 ! R7    R(4,5)                  1.212          estimate D2E/DX2                !
 ! R8    R(4,24)                 1.3496         estimate D2E/DX2                !
 ! R9    R(6,7)                  1.0958         estimate D2E/DX2                !
 ! R10   R(6,8)                  1.0944         estimate D2E/DX2                !
 ! R11   R(6,9)                  1.5005         estimate D2E/DX2                !
 ! R12   R(9,10)                 1.3739         estimate D2E/DX2                !
 ! R13   R(9,12)                 1.4466         estimate D2E/DX2                !
 ! R14   R(10,11)                1.0818         estimate D2E/DX2                !
 ! R15   R(10,13)                1.3821         estimate D2E/DX2                !
 ! R16   R(12,15)                1.4232         estimate D2E/DX2                !
 ! R17   R(12,16)                1.408          estimate D2E/DX2                !
 ! R18   R(13,14)                1.0079         estimate D2E/DX2                !
 ! R19   R(13,15)                1.38           estimate D2E/DX2                !
 ! R20   R(15,18)                1.3989         estimate D2E/DX2                !
 ! R21   R(16,17)                1.086          estimate D2E/DX2                !
 ! R22   R(16,20)                1.39           estimate D2E/DX2                !
 ! R23   R(18,19)                1.0872         estimate D2E/DX2                !
 ! R24   R(18,22)                1.3898         estimate D2E/DX2                !
 ! R25   R(20,21)                1.0867         estimate D2E/DX2                !
 ! R26   R(20,22)                1.4102         estimate D2E/DX2                !
 ! R27   R(22,23)                1.0866         estimate D2E/DX2                !
 ! R28   R(24,26)                1.4405         estimate D2E/DX2                !
 ! R29   R(26,27)                1.0902         estimate D2E/DX2                !
 ! R30   R(26,28)                1.0922         estimate D2E/DX2                !
 ! R31   R(26,29)                1.0928         estimate D2E/DX2                !
 ! R32   R(30,31)                1.5104         estimate D2E/DX2                !
 ! R33   R(30,34)                1.2305         estimate D2E/DX2                !
 ! R34   R(31,32)                1.3373         estimate D2E/DX2                !
 ! R35   R(31,33)                1.5101         estimate D2E/DX2                !
 ! R36   R(32,35)                1.0865         estimate D2E/DX2                !
 ! R37   R(32,36)                1.0849         estimate D2E/DX2                !
 ! R38   R(33,37)                1.0937         estimate D2E/DX2                !
 ! R39   R(33,38)                1.0981         estimate D2E/DX2                !
 ! R40   R(33,39)                1.0988         estimate D2E/DX2                !
 ! A1    A(2,1,25)             117.308          estimate D2E/DX2                !
 ! A2    A(2,1,30)             121.2841         estimate D2E/DX2                !
 ! A3    A(25,1,30)            121.2478         estimate D2E/DX2                !
 ! A4    A(1,2,3)              107.5463         estimate D2E/DX2                !
 ! A5    A(1,2,4)              112.2934         estimate D2E/DX2                !
 ! A6    A(1,2,6)              112.8653         estimate D2E/DX2                !
 ! A7    A(3,2,4)              107.0783         estimate D2E/DX2                !
 ! A8    A(3,2,6)              106.6588         estimate D2E/DX2                !
 ! A9    A(4,2,6)              110.0381         estimate D2E/DX2                !
 ! A10   A(2,4,5)              123.1203         estimate D2E/DX2                !
 ! A11   A(2,4,24)             113.0226         estimate D2E/DX2                !
 ! A12   A(5,4,24)             123.8134         estimate D2E/DX2                !
 ! A13   A(2,6,7)              107.3605         estimate D2E/DX2                !
 ! A14   A(2,6,8)              105.6207         estimate D2E/DX2                !
 ! A15   A(2,6,9)              114.9416         estimate D2E/DX2                !
 ! A16   A(7,6,8)              107.2965         estimate D2E/DX2                !
 ! A17   A(7,6,9)              110.95           estimate D2E/DX2                !
 ! A18   A(8,6,9)              110.2693         estimate D2E/DX2                !
 ! A19   A(6,9,10)             125.7455         estimate D2E/DX2                !
 ! A20   A(6,9,12)             128.0648         estimate D2E/DX2                !
 ! A21   A(10,9,12)            106.1853         estimate D2E/DX2                !
 ! A22   A(9,10,11)            129.268          estimate D2E/DX2                !
 ! A23   A(9,10,13)            110.2085         estimate D2E/DX2                !
 ! A24   A(11,10,13)           120.5195         estimate D2E/DX2                !
 ! A25   A(9,12,15)            107.2204         estimate D2E/DX2                !
 ! A26   A(9,12,16)            134.1927         estimate D2E/DX2                !
 ! A27   A(15,12,16)           118.5792         estimate D2E/DX2                !
 ! A28   A(10,13,14)           125.2381         estimate D2E/DX2                !
 ! A29   A(10,13,15)           109.1835         estimate D2E/DX2                !
 ! A30   A(14,13,15)           125.4051         estimate D2E/DX2                !
 ! A31   A(12,15,13)           107.1977         estimate D2E/DX2                !
 ! A32   A(12,15,18)           122.4915         estimate D2E/DX2                !
 ! A33   A(13,15,18)           130.3105         estimate D2E/DX2                !
 ! A34   A(12,16,17)           120.4915         estimate D2E/DX2                !
 ! A35   A(12,16,20)           119.0802         estimate D2E/DX2                !
 ! A36   A(17,16,20)           120.4277         estimate D2E/DX2                !
 ! A37   A(15,18,19)           121.2967         estimate D2E/DX2                !
 ! A38   A(15,18,22)           117.5164         estimate D2E/DX2                !
 ! A39   A(19,18,22)           121.1866         estimate D2E/DX2                !
 ! A40   A(16,20,21)           119.5178         estimate D2E/DX2                !
 ! A41   A(16,20,22)           121.235          estimate D2E/DX2                !
 ! A42   A(21,20,22)           119.2461         estimate D2E/DX2                !
 ! A43   A(18,22,20)           121.0968         estimate D2E/DX2                !
 ! A44   A(18,22,23)           119.4026         estimate D2E/DX2                !
 ! A45   A(20,22,23)           119.5001         estimate D2E/DX2                !
 ! A46   A(4,24,26)            115.5834         estimate D2E/DX2                !
 ! A47   A(24,26,27)           105.5015         estimate D2E/DX2                !
 ! A48   A(24,26,28)           110.4092         estimate D2E/DX2                !
 ! A49   A(24,26,29)           109.7795         estimate D2E/DX2                !
 ! A50   A(27,26,28)           110.8694         estimate D2E/DX2                !
 ! A51   A(27,26,29)           110.6078         estimate D2E/DX2                !
 ! A52   A(28,26,29)           109.6091         estimate D2E/DX2                !
 ! A53   A(1,30,31)            115.7299         estimate D2E/DX2                !
 ! A54   A(1,30,34)            121.6035         estimate D2E/DX2                !
 ! A55   A(31,30,34)           122.6661         estimate D2E/DX2                !
 ! A56   A(30,31,32)           116.9941         estimate D2E/DX2                !
 ! A57   A(30,31,33)           120.1836         estimate D2E/DX2                !
 ! A58   A(32,31,33)           122.8222         estimate D2E/DX2                !
 ! A59   A(31,32,35)           121.7021         estimate D2E/DX2                !
 ! A60   A(31,32,36)           120.0742         estimate D2E/DX2                !
 ! A61   A(35,32,36)           118.2232         estimate D2E/DX2                !
 ! A62   A(31,33,37)           110.7538         estimate D2E/DX2                !
 ! A63   A(31,33,38)           111.7654         estimate D2E/DX2                !
 ! A64   A(31,33,39)           111.8286         estimate D2E/DX2                !
 ! A65   A(37,33,38)           107.5551         estimate D2E/DX2                !
 ! A66   A(37,33,39)           107.4569         estimate D2E/DX2                !
 ! A67   A(38,33,39)           107.2559         estimate D2E/DX2                !
 ! D1    D(25,1,2,3)           148.3972         estimate D2E/DX2                !
 ! D2    D(25,1,2,4)            30.8468         estimate D2E/DX2                !
 ! D3    D(25,1,2,6)           -94.2391         estimate D2E/DX2                !
 ! D4    D(30,1,2,3)           -36.1474         estimate D2E/DX2                !
 ! D5    D(30,1,2,4)          -153.6977         estimate D2E/DX2                !
 ! D6    D(30,1,2,6)            81.2164         estimate D2E/DX2                !
 ! D7    D(2,1,30,31)         -179.1407         estimate D2E/DX2                !
 ! D8    D(2,1,30,34)            1.1117         estimate D2E/DX2                !
 ! D9    D(25,1,30,31)          -3.8644         estimate D2E/DX2                !
 ! D10   D(25,1,30,34)         176.388          estimate D2E/DX2                !
 ! D11   D(1,2,4,5)            168.1583         estimate D2E/DX2                !
 ! D12   D(1,2,4,24)           -14.1651         estimate D2E/DX2                !
 ! D13   D(3,2,4,5)             50.33           estimate D2E/DX2                !
 ! D14   D(3,2,4,24)          -131.9934         estimate D2E/DX2                !
 ! D15   D(6,2,4,5)            -65.2184         estimate D2E/DX2                !
 ! D16   D(6,2,4,24)           112.4582         estimate D2E/DX2                !
 ! D17   D(1,2,6,7)           -177.9935         estimate D2E/DX2                !
 ! D18   D(1,2,6,8)            -63.7345         estimate D2E/DX2                !
 ! D19   D(1,2,6,9)             58.0515         estimate D2E/DX2                !
 ! D20   D(3,2,6,7)            -60.1079         estimate D2E/DX2                !
 ! D21   D(3,2,6,8)             54.151          estimate D2E/DX2                !
 ! D22   D(3,2,6,9)            175.937          estimate D2E/DX2                !
 ! D23   D(4,2,6,7)             55.705          estimate D2E/DX2                !
 ! D24   D(4,2,6,8)            169.964          estimate D2E/DX2                !
 ! D25   D(4,2,6,9)            -68.25           estimate D2E/DX2                !
 ! D26   D(2,4,24,26)         -175.2558         estimate D2E/DX2                !
 ! D27   D(5,4,24,26)            2.4022         estimate D2E/DX2                !
 ! D28   D(2,6,9,10)           -93.4151         estimate D2E/DX2                !
 ! D29   D(2,6,9,12)            85.7127         estimate D2E/DX2                !
 ! D30   D(7,6,9,10)           144.5508         estimate D2E/DX2                !
 ! D31   D(7,6,9,12)           -36.3215         estimate D2E/DX2                !
 ! D32   D(8,6,9,10)            25.815          estimate D2E/DX2                !
 ! D33   D(8,6,9,12)          -155.0572         estimate D2E/DX2                !
 ! D34   D(6,9,10,11)           -1.8964         estimate D2E/DX2                !
 ! D35   D(6,9,10,13)          178.8413         estimate D2E/DX2                !
 ! D36   D(12,9,10,11)         178.8186         estimate D2E/DX2                !
 ! D37   D(12,9,10,13)          -0.4436         estimate D2E/DX2                !
 ! D38   D(6,9,12,15)         -179.227          estimate D2E/DX2                !
 ! D39   D(6,9,12,16)            1.8328         estimate D2E/DX2                !
 ! D40   D(10,9,12,15)           0.0359         estimate D2E/DX2                !
 ! D41   D(10,9,12,16)        -178.9043         estimate D2E/DX2                !
 ! D42   D(9,10,13,14)         176.1227         estimate D2E/DX2                !
 ! D43   D(9,10,13,15)           0.7021         estimate D2E/DX2                !
 ! D44   D(11,10,13,14)         -3.2143         estimate D2E/DX2                !
 ! D45   D(11,10,13,15)       -178.6349         estimate D2E/DX2                !
 ! D46   D(9,12,15,13)           0.3782         estimate D2E/DX2                !
 ! D47   D(9,12,15,18)        -179.4728         estimate D2E/DX2                !
 ! D48   D(16,12,15,13)        179.5129         estimate D2E/DX2                !
 ! D49   D(16,12,15,18)         -0.3381         estimate D2E/DX2                !
 ! D50   D(9,12,16,17)          -1.1117         estimate D2E/DX2                !
 ! D51   D(9,12,16,20)         179.1599         estimate D2E/DX2                !
 ! D52   D(15,12,16,17)       -179.959          estimate D2E/DX2                !
 ! D53   D(15,12,16,20)          0.3127         estimate D2E/DX2                !
 ! D54   D(10,13,15,12)         -0.6557         estimate D2E/DX2                !
 ! D55   D(10,13,15,18)        179.1794         estimate D2E/DX2                !
 ! D56   D(14,13,15,12)       -176.0668         estimate D2E/DX2                !
 ! D57   D(14,13,15,18)          3.7683         estimate D2E/DX2                !
 ! D58   D(12,15,18,19)        179.9252         estimate D2E/DX2                !
 ! D59   D(12,15,18,22)          0.1237         estimate D2E/DX2                !
 ! D60   D(13,15,18,19)          0.112          estimate D2E/DX2                !
 ! D61   D(13,15,18,22)       -179.6896         estimate D2E/DX2                !
 ! D62   D(12,16,20,21)       -179.717          estimate D2E/DX2                !
 ! D63   D(12,16,20,22)         -0.0909         estimate D2E/DX2                !
 ! D64   D(17,16,20,21)          0.5545         estimate D2E/DX2                !
 ! D65   D(17,16,20,22)       -179.8194         estimate D2E/DX2                !
 ! D66   D(15,18,22,20)          0.1108         estimate D2E/DX2                !
 ! D67   D(15,18,22,23)        179.8487         estimate D2E/DX2                !
 ! D68   D(19,18,22,20)       -179.691          estimate D2E/DX2                !
 ! D69   D(19,18,22,23)          0.0469         estimate D2E/DX2                !
 ! D70   D(16,20,22,18)         -0.1288         estimate D2E/DX2                !
 ! D71   D(16,20,22,23)       -179.8665         estimate D2E/DX2                !
 ! D72   D(21,20,22,18)        179.4983         estimate D2E/DX2                !
 ! D73   D(21,20,22,23)         -0.2393         estimate D2E/DX2                !
 ! D74   D(4,24,26,27)        -174.8931         estimate D2E/DX2                !
 ! D75   D(4,24,26,28)         -55.0487         estimate D2E/DX2                !
 ! D76   D(4,24,26,29)          65.9044         estimate D2E/DX2                !
 ! D77   D(1,30,31,32)         -20.859          estimate D2E/DX2                !
 ! D78   D(1,30,31,33)         159.0706         estimate D2E/DX2                !
 ! D79   D(34,30,31,32)        158.8856         estimate D2E/DX2                !
 ! D80   D(34,30,31,33)        -21.1848         estimate D2E/DX2                !
 ! D81   D(30,31,32,35)        179.8174         estimate D2E/DX2                !
 ! D82   D(30,31,32,36)          0.0703         estimate D2E/DX2                !
 ! D83   D(33,31,32,35)         -0.1102         estimate D2E/DX2                !
 ! D84   D(33,31,32,36)       -179.8573         estimate D2E/DX2                !
 ! D85   D(30,31,33,37)       -179.7313         estimate D2E/DX2                !
 ! D86   D(30,31,33,38)        -59.823          estimate D2E/DX2                !
 ! D87   D(30,31,33,39)         60.4426         estimate D2E/DX2                !
 ! D88   D(32,31,33,37)          0.194          estimate D2E/DX2                !
 ! D89   D(32,31,33,38)        120.1023         estimate D2E/DX2                !
 ! D90   D(32,31,33,39)       -119.632          estimate D2E/DX2                !
 --------------------------------------------------------------------------------
 Trust Radius=3.00D-01 FncErr=1.00D-07 GrdErr=1.00D-06
 Number of steps in this run=    207 maximum allowed number of steps=    234.
 GradGradGradGradGradGradGradGradGradGradGradGradGradGradGradGradGradGrad

 Leave Link  103 at Fri Jan 26 11:38:21 2024, MaxMem=    33554432 cpu:         0.0
 (Enter C:\G09W\l202.exe)
                          Input orientation:                          
 ---------------------------------------------------------------------
 Center     Atomic      Atomic             Coordinates (Angstroms)
 Number     Number       Type             X           Y           Z
 ---------------------------------------------------------------------
      1          7           0        1.890433    0.435179    0.004675
      2          6           0        1.021636    1.125680   -0.928082
      3          1           0        1.658118    1.693312   -1.613324
      4          6           0        0.108421    2.125887   -0.234269
      5          8           0       -0.543948    2.953311   -0.833239
      6          6           0        0.175601    0.148353   -1.807853
      7          1           0       -0.416021    0.759376   -2.498831
      8          1           0        0.900472   -0.411079   -2.407192
      9          6           0       -0.702440   -0.795376   -1.039728
     10          6           0       -0.366483   -2.070663   -0.654673
     11          1           0        0.541596   -2.626769   -0.845654
     12          6           0       -2.040722   -0.563219   -0.541925
     13          7           0       -1.403239   -2.642948    0.057943
     14          1           0       -1.420168   -3.590925    0.399891
     15          6           0       -2.449059   -1.745930    0.136298
     16          6           0       -2.942009    0.515968   -0.616036
     17          1           0       -2.662919    1.432938   -1.126617
     18          6           0       -3.706605   -1.872154    0.735937
     19          1           0       -3.998892   -2.785425    1.248232
     20          6           0       -4.192516    0.393853   -0.021545
     21          1           0       -4.895440    1.220665   -0.078421
     22          6           0       -4.571200   -0.787498    0.648994
     23          1           0       -5.556756   -0.853246    1.101875
     24          8           0        0.065147    1.960771    1.104455
     25          1           0        1.540029    0.283704    0.937772
     26          6           0       -0.864085    2.808898    1.806116
     27          1           0       -0.699354    2.608285    2.864946
     28          1           0       -0.671328    3.858645    1.574429
     29          1           0       -1.887244    2.552197    1.520632
     30          6           0        3.096155   -0.073604   -0.391483
     31          6           0        3.890423   -0.785928    0.677619
     32          6           0        3.590244   -0.499580    1.948987
     33          6           0        4.967122   -1.772473    0.293021
     34          8           0        3.500404    0.051163   -1.546969
     35          1           0        4.111353   -0.969602    2.778489
     36          1           0        2.806007    0.215297    2.174694
     37          1           0        5.438280   -2.198591    1.183335
     38          1           0        4.564035   -2.604908   -0.298974
     39          1           0        5.758907   -1.300565   -0.305063
 ---------------------------------------------------------------------
                    Distance matrix (angstroms):
                    1          2          3          4          5
     1  N    0.000000
     2  C    1.449702   0.000000
     3  H    2.062714   1.094016   0.000000
     4  C    2.468026   1.521760   2.119074   0.000000
     5  O    3.601291   2.408378   2.654284   1.212015   0.000000
     6  C    2.511608   1.563630   2.150022   2.528106   3.055391
     7  H    3.419412   2.160622   2.440986   2.696411   2.757519
     8  H    2.741036   2.136370   2.373334   3.432949   3.985323
     9  C    3.054183   2.583672   3.477760   3.136883   3.757714
    10  C    3.436227   3.495459   4.380129   4.244208   5.030278
    11  H    3.452238   3.783927   4.527586   4.811359   5.684703
    12  C    4.092621   3.518456   4.463322   3.456119   3.832907
    13  N    4.508434   4.588553   5.564907   5.011217   5.731553
    14  H    5.227407   5.474695   6.438326   5.951528   6.716800
    15  C    4.858575   4.628690   5.635465   4.654996   5.162588
    16  C    4.872813   4.022388   4.851999   3.470261   3.426152
    17  H    4.796703   3.702671   4.356150   2.992789   2.624432
    18  C    6.097980   5.840568   6.856517   5.610709   5.979116
    19  H    6.826630   6.725978   7.762045   6.571820   7.014432
    20  C    6.083146   5.342730   6.200990   4.641471   4.530091
    21  H    6.831688   5.978523   6.747477   5.087469   4.744185
    22  C    6.607782   6.117780   7.076504   5.582725   5.692928
    23  H    7.637049   7.163248   8.118600   6.538711   6.585043
    24  O    2.620804   2.396551   3.161552   1.349562   2.260706
    25  H    1.008165   2.111650   2.917024   2.610904   3.821811
    26  C    4.057968   3.723574   4.393018   2.361238   2.662619
    27  H    4.428379   4.421197   5.142932   3.238880   3.717495
    28  H    4.554873   4.074038   4.502972   2.623328   2.575407
    29  H    4.588108   4.061125   4.809257   2.691486   2.739716
    30  C    1.367321   2.455575   2.585119   3.713359   4.754757
    31  C    2.438015   3.802954   4.047003   4.859398   5.994018
    32  C    2.746540   4.185301   4.607814   4.876759   6.062572
    33  C    3.797747   5.045517   5.157065   6.251577   7.346658
    34  O    2.268716   2.771624   2.468820   4.187268   5.028783
    35  H    3.820987   5.260725   5.691880   5.889162   7.078535
    36  H    2.365503   3.693236   4.225075   4.090284   5.269400
    37  H    4.573095   5.917398   6.103919   7.008431   8.148356
    38  H    4.059862   5.182823   5.352249   6.499008   7.567743
    39  H    4.251333   5.358783   5.243216   6.608598   7.622362
                    6          7          8          9         10
     6  C    0.000000
     7  H    1.095818   0.000000
     8  H    1.094353   1.763949   0.000000
     9  C    1.500532   2.151342   2.141721   0.000000
    10  C    2.558850   3.378238   2.725934   1.373860   0.000000
    11  H    2.959912   3.887930   2.734314   2.222451   1.081820
    12  C    2.649716   2.866774   3.486114   1.446618   2.255699
    13  N    3.710161   4.368924   4.045394   2.260425   1.382098
    14  H    4.626317   5.323159   4.834926   3.225326   2.129214
    15  C    3.775827   4.165778   4.412542   2.310253   2.251268
    16  C    3.357836   3.159870   4.339622   2.629602   3.650409
    17  H    3.189269   2.717574   4.211654   2.969244   4.215634
    18  C    5.062098   5.311932   5.765341   3.652047   3.623481
    19  H    5.947529   6.280371   6.557699   4.479024   4.162491
    20  C    4.725634   4.531277   5.681351   3.825126   4.594912
    21  H    5.464087   5.112374   6.455878   4.750766   5.628175
    22  C    5.426236   5.437567   6.278627   4.221273   4.585379
    23  H    6.506123   6.480184   7.362395   5.306053   5.613065
    24  O    3.431996   3.828648   4.319156   3.575340   4.419649
    25  H    3.068948   3.982792   3.475707   3.178614   3.422530
    26  C    4.606541   4.788932   5.588728   4.595188   5.487550
    27  H    5.352743   5.680567   6.282630   5.179903   5.864390
    28  H    5.091501   5.124656   6.046024   5.338042   6.341807
    29  H    4.594846   4.640559   5.655101   4.377836   5.330619
    30  C    3.253460   4.179731   2.999666   3.920523   4.005918
    31  C    4.566219   5.569853   4.312352   4.903444   4.641853
    32  C    5.117954   6.117043   5.120449   5.238993   4.990294
    33  C    5.573322   6.571371   5.067759   5.905495   5.425346
    34  O    3.336438   4.092187   2.777282   4.317154   4.500128
    35  H    6.146097   7.164956   6.124785   6.146686   5.748909
    36  H    4.773279   5.702571   5.001708   4.864480   4.826554
    37  H    6.492391   7.522018   6.056301   6.679780   6.090149
    38  H    5.395880   6.399902   4.762265   5.617730   4.972117
    39  H    5.960792   6.869185   5.367916   6.522572   6.183500
                   11         12         13         14         15
    11  H    0.000000
    12  C    3.319466   0.000000
    13  N    2.144559   2.256435   0.000000
    14  H    2.515849   3.230961   1.007906   0.000000
    15  C    3.268658   1.423211   1.380044   2.128874   0.000000
    16  C    4.697342   1.407997   3.577822   4.496074   2.434171
    17  H    5.179679   2.171091   4.427508   5.395726   3.427228
    18  C    4.595442   2.474148   2.521764   2.880086   1.398900
    19  H    5.002556   3.460822   2.859109   2.831666   2.172310
    20  C    5.675837   2.411846   4.124142   4.872574   2.764639
    21  H    6.704682   3.398013   5.209757   5.954637   3.851178
    22  C    5.635386   2.805692   3.718604   4.224957   2.384309
    23  H    6.642902   3.892132   4.641609   5.009893   3.374464
    24  O    5.007540   3.676381   4.944246   5.789983   4.582378
    25  H    3.556449   3.965925   4.242902   4.905592   4.546933
    26  C    6.209211   4.274219   5.750602   6.576050   5.103616
    27  H    6.535618   4.844014   5.995846   6.710162   5.428276
    28  H    7.027701   5.089899   6.716110   7.578680   6.053083
    29  H    6.190336   3.739454   5.418787   6.261962   4.550375
    30  C    3.640150   5.162350   5.200775   5.778840   5.815894
    31  C    4.113842   6.059321   5.644057   6.012281   6.434568
    32  C    4.650721   6.157635   5.753690   6.087721   6.427473
    33  C    4.648837   7.160259   6.433855   6.641962   7.417884
    34  O    4.051877   5.664950   5.820626   6.423947   6.438870
    35  H    5.350120   7.002737   6.372769   6.567099   7.114975
    36  H    4.725187   5.610426   5.510712   5.958003   5.968013
    37  H    5.317673   7.847702   6.947686   7.042065   7.969398
    38  H    4.059477   6.917394   5.978060   6.105025   7.078898
    39  H    5.410304   7.837984   7.295896   7.568476   8.231880
                   16         17         18         19         20
    16  C    0.000000
    17  H    1.086010   0.000000
    18  C    2.848783   3.934720   0.000000
    19  H    3.935949   5.021884   1.087171   0.000000
    20  C    1.390000   2.154193   2.438171   3.428940   0.000000
    21  H    2.145115   2.475465   3.412043   4.314228   1.086718
    22  C    2.439998   3.424130   1.389807   2.162946   1.410182
    23  H    3.415094   4.308957   2.143628   2.486298   2.162979
    24  O    3.753736   3.563514   5.390105   6.250077   4.674484
    25  H    4.749414   4.821536   5.675881   6.339999   5.813303
    26  C    3.929646   3.705400   5.580094   6.436979   4.500138
    27  H    4.639453   4.601044   5.800911   6.526318   5.043582
    28  H    4.596479   4.140790   6.538963   7.437927   5.191405
    29  H    3.134343   2.976968   4.847752   5.746605   3.514404
    30  C    6.071033   5.998085   7.126247   7.770607   7.313009
    31  C    7.074645   7.150170   7.674511   8.158730   8.198452
    32  C    7.090911   7.231599   7.523261   7.956829   8.077907
    33  C    8.283580   8.396877   8.685600   9.073472   9.417584
    34  O    6.525900   6.330288   7.800756   8.491102   7.850183
    35  H    7.967411   8.180026   8.130627   8.450738   8.868678
    36  H    6.396738   6.503111   6.988675   7.494619   7.337211
    37  H    8.990873   9.173511   9.161640   9.455623  10.046130
    38  H    8.135177   8.319739   8.367285   8.703457   9.259953
    39  H    8.893955   8.892364   9.539723   9.991605  10.098626
                   21         22         23         24         25
    21  H    0.000000
    22  C    2.160320   0.000000
    23  H    2.476196   1.086621   0.000000
    24  O    5.153094   5.408895   6.286851   0.000000
    25  H    6.582234   6.211118   7.189155   2.239557   0.000000
    26  C    4.725017   5.292986   5.994032   1.440528   3.593103
    27  H    5.309994   5.606512   6.219724   2.025602   3.759323
    28  H    5.247283   6.136129   6.803869   2.089305   4.251545
    29  H    3.657758   4.372292   5.023716   2.082023   4.151143
    30  C    8.101773   7.770494   8.815375   3.945063   2.077526
    31  C    9.043749   8.461672   9.456940   4.728560   2.595408
    32  C    8.892495   8.269344   9.192948   4.380967   2.416500
    33  C   10.313436   9.595649  10.594868   6.214893   4.048275
    34  O    8.603172   8.406926   9.479793   4.741059   3.173497
    35  H    9.699563   8.941736   9.813099   5.268896   3.401577
    36  H    8.087000   7.599772   8.498737   3.421170   1.771258
    37  H   10.957605  10.122568  11.077337   6.795371   4.628007
    38  H   10.206142   9.362379  10.366345   6.561634   4.360990
    39  H   10.950939  10.386750  11.411564   6.711330   4.674770
                   26         27         28         29         30
    26  C    0.000000
    27  H    1.090185   0.000000
    28  H    1.092155   1.797114   0.000000
    29  H    1.092818   1.794828   1.785540   0.000000
    30  C    5.368590   5.674746   5.789760   5.948553   0.000000
    31  C    6.066434   6.113193   6.571598   6.725711   1.510379
    32  C    5.550450   5.375729   6.106998   6.284880   2.429687
    33  C    7.568447   7.610176   8.071159   8.197080   2.618247
    34  O    6.156058   6.606197   6.453169   6.685215   1.230501
    35  H    6.322781   5.995970   6.901867   7.068836   3.447052
    36  H    4.509123   4.300046   5.072096   5.283512   2.598637
    37  H    8.073574   7.975238   8.612222   8.737680   3.532870
    38  H    7.950169   8.055497   8.526206   8.457287   2.927581
    39  H    8.075195   8.187624   8.455640   8.754459   2.933112
                   31         32         33         34         35
    31  C    0.000000
    32  C    1.337340   0.000000
    33  C    1.510121   2.501653   0.000000
    34  O    2.408657   3.540211   2.976990   0.000000
    35  H    2.120425   1.086531   2.748544   4.486068   0.000000
    36  H    2.102295   1.084906   3.487454   3.789446   1.863460
    37  H    2.155742   2.624518   1.093721   4.033772   2.411569
    38  H    2.171676   3.230170   1.098128   3.121461   3.514246
    39  H    2.172958   3.228840   1.098783   2.910384   3.511732
                   36         37         38         39
    36  H    0.000000
    37  H    3.706549   0.000000
    38  H    4.142855   1.768229   0.000000
    39  H    4.143265   1.767648   1.768917   0.000000
 Stoichiometry    C16H18N2O3
 Framework group  C1[X(C16H18N2O3)]
 Deg. of freedom   111
 Full point group                 C1      NOp   1
 Largest Abelian subgroup         C1      NOp   1
 Largest concise Abelian subgroup C1      NOp   1
                         Standard orientation:                         
 ---------------------------------------------------------------------
 Center     Atomic      Atomic             Coordinates (Angstroms)
 Number     Number       Type             X           Y           Z
 ---------------------------------------------------------------------
      1          7           0        1.862507    0.484259    0.019105
      2          6           0        0.985667    1.122637   -0.942800
      3          1           0        1.614725    1.678112   -1.644659
      4          6           0        0.048010    2.128274   -0.290689
      5          8           0       -0.617310    2.919955   -0.922806
      6          6           0        0.165162    0.097008   -1.791208
      7          1           0       -0.434453    0.670401   -2.507098
      8          1           0        0.904969   -0.468691   -2.365908
      9          6           0       -0.698269   -0.836208   -0.994219
     10          6           0       -0.338855   -2.089589   -0.561382
     11          1           0        0.581512   -2.633457   -0.727115
     12          6           0       -2.044063   -0.613768   -0.512491
     13          7           0       -1.368171   -2.656946    0.165809
     14          1           0       -1.367949   -3.592106    0.541777
     15          6           0       -2.432479   -1.779357    0.205887
     16          6           0       -2.966626    0.443297   -0.630585
     17          1           0       -2.703068    1.346773   -1.172514
     18          6           0       -3.690902   -1.909653    0.802808
     19          1           0       -3.967741   -2.809642    1.346243
     20          6           0       -4.218064    0.317065   -0.038918
     21          1           0       -4.937285    1.126670   -0.129559
     22          6           0       -4.576813   -0.846833    0.671894
     23          1           0       -5.563625   -0.916418    1.121454
     24          8           0       -0.000219    2.010749    1.052881
     25          1           0        1.509461    0.359409    0.955143
     26          6           0       -0.950846    2.864391    1.718256
     27          1           0       -0.788656    2.705567    2.784545
     28          1           0       -0.778035    3.908826    1.449750
     29          1           0       -1.966780    2.576586    1.436659
     30          6           0        3.080763   -0.013621   -0.351752
     31          6           0        3.882687   -0.670411    0.746789
     32          6           0        3.568851   -0.344571    2.005285
     33          6           0        4.981591   -1.647873    0.404086
     34          8           0        3.489568    0.077621   -1.508767
     35          1           0        4.094242   -0.773530    2.854112
     36          1           0        2.768854    0.361729    2.200647
     37          1           0        5.455771   -2.031798    1.311820
     38          1           0        4.599200   -2.509246   -0.159562
     39          1           0        5.767321   -1.181703   -0.206355
 ---------------------------------------------------------------------
 Rotational constants (GHZ):      0.4840502      0.2100840      0.1769777
 Leave Link  202 at Fri Jan 26 11:38:21 2024, MaxMem=    33554432 cpu:         0.0
 (Enter C:\G09W\l301.exe)
 Standard basis: 6-31G(d) (6D, 7F)
 Ernie: Thresh=  0.10000D-02 Tol=  0.10000D-05 Strict=F.
 There are   351 symmetry adapted cartesian basis functions of A   symmetry.
 There are   351 symmetry adapted basis functions of A   symmetry.
   351 basis functions,   660 primitive gaussians,   351 cartesian basis functions
    76 alpha electrons       76 beta electrons
       nuclear repulsion energy      1678.6132928107 Hartrees.
 IExCor=  402 DFT=T Ex+Corr=B3LYP ExCW=0 ScaHFX=  0.200000
 ScaDFX=  0.800000  0.720000  1.000000  0.810000 ScalE2=  1.000000  1.000000
 IRadAn=      0 IRanWt=     -1 IRanGd=            0 ICorTp=0 IEmpDi=  4
 NAtoms=   39 NActive=   39 NUniq=   39 SFac= 1.00D+00 NAtFMM=   60 NAOKFM=F Big=F
 Integral buffers will be    262144 words long.
 Raffenetti 2 integral format.
 Two-electron integral symmetry is turned on.
 Leave Link  301 at Fri Jan 26 11:38:21 2024, MaxMem=    33554432 cpu:         0.0
 (Enter C:\G09W\l302.exe)
 NPDir=0 NMtPBC=     1 NCelOv=     1 NCel=       1 NClECP=     1 NCelD=      1
         NCelK=      1 NCelE2=     1 NClLst=     1 CellRange=     0.0.
 One-electron integrals computed using PRISM.
 NBasis=   351 RedAO= T EigKep=  3.70D-04  NBF=   351
 NBsUse=   351 1.00D-06 EigRej= -1.00D+00 NBFU=   351
 Precomputing XC quadrature grid using
 IXCGrd= 4 IRadAn=           0 IRanWt=          -1 IRanGd=           0 AccXCQ= 0.00D+00.
 Generated NRdTot=       0 NPtTot=           0 NUsed=           0 NTot=          16
 NSgBfM=   348   348   348   348   348 MxSgAt=    39 MxSgA2=    39.
 Leave Link  302 at Fri Jan 26 11:38:22 2024, MaxMem=    33554432 cpu:         1.0
 (Enter C:\G09W\l303.exe)
 DipDrv:  MaxL=1.
 Leave Link  303 at Fri Jan 26 11:38:23 2024, MaxMem=    33554432 cpu:         0.0
 (Enter C:\G09W\l401.exe)
 ExpMin= 1.61D-01 ExpMax= 5.48D+03 ExpMxC= 8.25D+02 IAcc=1 IRadAn=         1 AccDes= 0.00D+00
 Harris functional with IExCor=  402 and IRadAn=       1 diagonalized for initial guess.
 HarFok:  IExCor=  402 AccDes= 0.00D+00 IRadAn=         1 IDoV= 1 UseB2=F ITyADJ=14
 ICtDFT=  3500011 ScaDFX=  1.000000  1.000000  1.000000  1.000000
 FoFCou: FMM=F IPFlag=           0 FMFlag=      100000 FMFlg1=           0
         NFxFlg=           0 DoJE=T BraDBF=F KetDBF=T FulRan=T
         wScrn=  0.000000 ICntrl=     500 IOpCl=  0 I1Cent=   200000004 NGrid=           0
         NMat0=    1 NMatS0=      1 NMatT0=    0 NMatD0=    1 NMtDS0=    0 NMtDT0=    0
 Petite list used in FoFCou.
 Harris En= -955.748502667650    
 JPrj=0 DoOrth=F DoCkMO=F.
 Leave Link  401 at Fri Jan 26 11:38:24 2024, MaxMem=    33554432 cpu:         1.0
 (Enter C:\G09W\l502.exe)
 Closed shell SCF:
 Using DIIS extrapolation, IDIIS=  1040.
 Integral symmetry usage will be decided dynamically.
 IVT=      393055 IEndB=      393055 NGot=    33554432 MDV=    33301570
 LenX=    33301570 LenY=    33177928
 Requested convergence on RMS density matrix=1.00D-08 within 128 cycles.
 Requested convergence on MAX density matrix=1.00D-06.
 Requested convergence on             energy=1.00D-06.
 No special actions if energy rises.
 Fock matrices will be formed incrementally for  20 cycles.
 Integral accuracy reduced to 1.0D-05 until final iterations.

 Cycle   1  Pass 0  IDiag  1:
 FoFJK:  IHMeth= 1 ICntrl=       0 DoSepK=F KAlg= 0 I1Cent=   0 FoldK=F
 IRaf= 760000000 NMat=   1 IRICut=       1 DoRegI=T DoRafI=F ISym2E= 0.
 FoFCou: FMM=F IPFlag=           0 FMFlag=      100000 FMFlg1=           0
         NFxFlg=           0 DoJE=F BraDBF=F KetDBF=F FulRan=T
         wScrn=  0.000000 ICntrl=       0 IOpCl=  0 I1Cent=           0 NGrid=           0
         NMat0=    1 NMatS0=      1 NMatT0=    0 NMatD0=    1 NMtDS0=    0 NMtDT0=    0
 Symmetry not used in FoFCou.
 E= -955.196024789256    
 DIIS: error= 2.40D-02 at cycle   1 NSaved=   1.
 NSaved= 1 IEnMin= 1 EnMin= -955.196024789256     IErMin= 1 ErrMin= 2.40D-02
 ErrMax= 2.40D-02  0.00D+00 EMaxC= 1.00D-01 BMatC= 5.53D-01 BMatP= 5.53D-01
 IDIUse=3 WtCom= 7.60D-01 WtEn= 2.40D-01
 Coeff-Com:  0.100D+01
 Coeff-En:   0.100D+01
 Coeff:      0.100D+01
 Gap=     0.156 Goal=   None    Shift=    0.000
 GapD=    0.156 DampG=1.000 DampE=0.500 DampFc=0.5000 IDamp=-1.
 Damping current iteration by 5.00D-01
 RMSDP=5.29D-03 MaxDP=2.13D-01              OVMax= 2.83D-01

 Cycle   2  Pass 0  IDiag  1:
 RMSU=  2.62D-03    CP:  9.81D-01
 E= -955.360898841627     Delta-E=       -0.164874052371 Rises=F Damp=T
 DIIS: error= 9.72D-03 at cycle   2 NSaved=   2.
 NSaved= 2 IEnMin= 2 EnMin= -955.360898841627     IErMin= 2 ErrMin= 9.72D-03
 ErrMax= 9.72D-03  0.00D+00 EMaxC= 1.00D-01 BMatC= 8.86D-02 BMatP= 5.53D-01
 IDIUse=3 WtCom= 9.03D-01 WtEn= 9.72D-02
 Coeff-Com:  0.199D+00 0.801D+00
 Coeff-En:   0.300D+00 0.700D+00
 Coeff:      0.209D+00 0.791D+00
 Gap=     0.242 Goal=   None    Shift=    0.000
 RMSDP=1.86D-03 MaxDP=1.07D-01 DE=-1.65D-01 OVMax= 1.90D-01

 Cycle   3  Pass 0  IDiag  1:
 RMSU=  1.66D-03    CP:  9.64D-01  7.07D-01
 E= -955.630924662961     Delta-E=       -0.270025821334 Rises=F Damp=F
 DIIS: error= 1.19D-02 at cycle   3 NSaved=   3.
 NSaved= 3 IEnMin= 3 EnMin= -955.630924662961     IErMin= 2 ErrMin= 9.72D-03
 ErrMax= 1.19D-02  0.00D+00 EMaxC= 1.00D-01 BMatC= 1.09D-01 BMatP= 8.86D-02
 IDIUse=2 WtCom= 0.00D+00 WtEn= 1.00D+00
 Coeff-En:   0.000D+00 0.000D+00 0.100D+01
 Coeff:      0.000D+00 0.000D+00 0.100D+01
 Gap=     0.170 Goal=   None    Shift=    0.000
 RMSDP=3.09D-03 MaxDP=1.85D-01 DE=-2.70D-01 OVMax= 3.35D-01

 Cycle   4  Pass 0  IDiag  1:
 RMSU=  1.73D-03    CP:  9.74D-01  1.23D+00 -2.92D-01
 E= -955.160010182598     Delta-E=        0.470914480363 Rises=F Damp=F
 DIIS: error= 3.25D-02 at cycle   4 NSaved=   4.
 NSaved= 4 IEnMin= 3 EnMin= -955.630924662961     IErMin= 2 ErrMin= 9.72D-03
 ErrMax= 3.25D-02  0.00D+00 EMaxC= 1.00D-01 BMatC= 6.95D-01 BMatP= 8.86D-02
 IDIUse=2 WtCom= 0.00D+00 WtEn= 1.00D+00
 Coeff-En:   0.000D+00 0.000D+00 0.803D+00 0.197D+00
 Coeff:      0.000D+00 0.000D+00 0.803D+00 0.197D+00
 Gap=     0.192 Goal=   None    Shift=    0.000
 RMSDP=1.71D-03 MaxDP=1.19D-01 DE= 4.71D-01 OVMax= 1.36D-01

 Cycle   5  Pass 0  IDiag  1:
 RMSU=  2.84D-04    CP:  9.71D-01  8.73D-01  3.64D-01  5.01D-01
 E= -955.682689956822     Delta-E=       -0.522679774224 Rises=F Damp=F
 DIIS: error= 8.79D-03 at cycle   5 NSaved=   5.
 NSaved= 5 IEnMin= 5 EnMin= -955.682689956822     IErMin= 5 ErrMin= 8.79D-03
 ErrMax= 8.79D-03  0.00D+00 EMaxC= 1.00D-01 BMatC= 5.05D-02 BMatP= 8.86D-02
 IDIUse=3 WtCom= 9.12D-01 WtEn= 8.79D-02
 Coeff-Com: -0.348D-02 0.406D-01 0.335D+00-0.685D-01 0.696D+00
 Coeff-En:   0.000D+00 0.000D+00 0.353D+00 0.000D+00 0.647D+00
 Coeff:     -0.318D-02 0.371D-01 0.337D+00-0.624D-01 0.692D+00
 Gap=     0.171 Goal=   None    Shift=    0.000
 RMSDP=6.11D-04 MaxDP=3.03D-02 DE=-5.23D-01 OVMax= 4.65D-02

 Cycle   6  Pass 0  IDiag  1:
 RMSU=  1.18D-04    CP:  9.69D-01  7.90D-01  6.21D-01  3.02D-01  6.48D-01
 E= -955.724247284783     Delta-E=       -0.041557327961 Rises=F Damp=F
 DIIS: error= 1.20D-03 at cycle   6 NSaved=   6.
 NSaved= 6 IEnMin= 6 EnMin= -955.724247284783     IErMin= 6 ErrMin= 1.20D-03
 ErrMax= 1.20D-03  0.00D+00 EMaxC= 1.00D-01 BMatC= 6.05D-04 BMatP= 5.05D-02
 IDIUse=3 WtCom= 9.88D-01 WtEn= 1.20D-02
 Coeff-Com: -0.690D-02 0.252D-01 0.169D+00-0.659D-01 0.463D+00 0.416D+00
 Coeff-En:   0.000D+00 0.000D+00 0.000D+00 0.000D+00 0.000D+00 0.100D+01
 Coeff:     -0.681D-02 0.249D-01 0.167D+00-0.651D-01 0.457D+00 0.423D+00
 Gap=     0.171 Goal=   None    Shift=    0.000
 RMSDP=8.30D-05 MaxDP=3.43D-03 DE=-4.16D-02 OVMax= 1.20D-02

 Cycle   7  Pass 0  IDiag  1:
 RMSU=  2.78D-05    CP:  9.69D-01  7.99D-01  6.13D-01  2.99D-01  7.70D-01
                    CP:  4.50D-01
 E= -955.724836133082     Delta-E=       -0.000588848299 Rises=F Damp=F
 DIIS: error= 2.37D-04 at cycle   7 NSaved=   7.
 NSaved= 7 IEnMin= 7 EnMin= -955.724836133082     IErMin= 7 ErrMin= 2.37D-04
 ErrMax= 2.37D-04  0.00D+00 EMaxC= 1.00D-01 BMatC= 2.23D-05 BMatP= 6.05D-04
 IDIUse=3 WtCom= 9.98D-01 WtEn= 2.37D-03
 Coeff-Com: -0.193D-02 0.525D-02 0.519D-01-0.214D-01 0.143D+00 0.193D+00
 Coeff-Com:  0.630D+00
 Coeff-En:   0.000D+00 0.000D+00 0.000D+00 0.000D+00 0.000D+00 0.000D+00
 Coeff-En:   0.100D+01
 Coeff:     -0.192D-02 0.524D-02 0.518D-01-0.214D-01 0.143D+00 0.192D+00
 Coeff:      0.631D+00
 Gap=     0.172 Goal=   None    Shift=    0.000
 RMSDP=1.71D-05 MaxDP=6.87D-04 DE=-5.89D-04 OVMax= 1.80D-03

 Cycle   8  Pass 0  IDiag  1:
 RMSU=  1.10D-05    CP:  9.69D-01  7.97D-01  6.15D-01  2.99D-01  7.56D-01
                    CP:  5.02D-01  6.81D-01
 E= -955.724853130531     Delta-E=       -0.000016997449 Rises=F Damp=F
 DIIS: error= 6.50D-05 at cycle   8 NSaved=   8.
 NSaved= 8 IEnMin= 8 EnMin= -955.724853130531     IErMin= 8 ErrMin= 6.50D-05
 ErrMax= 6.50D-05  0.00D+00 EMaxC= 1.00D-01 BMatC= 5.10D-06 BMatP= 2.23D-05
 IDIUse=1 WtCom= 1.00D+00 WtEn= 0.00D+00
 Coeff-Com: -0.198D-03-0.244D-03 0.139D-01-0.542D-02 0.351D-01 0.744D-01
 Coeff-Com:  0.417D+00 0.466D+00
 Coeff:     -0.198D-03-0.244D-03 0.139D-01-0.542D-02 0.351D-01 0.744D-01
 Coeff:      0.417D+00 0.466D+00
 Gap=     0.172 Goal=   None    Shift=    0.000
 RMSDP=6.49D-06 MaxDP=3.19D-04 DE=-1.70D-05 OVMax= 5.61D-04

 Initial convergence to 1.0D-05 achieved.  Increase integral accuracy.
 Cycle   9  Pass 1  IDiag  1:
 E= -955.724909204381     Delta-E=       -0.000056073850 Rises=F Damp=F
 DIIS: error= 4.05D-05 at cycle   1 NSaved=   1.
 NSaved= 1 IEnMin= 1 EnMin= -955.724909204381     IErMin= 1 ErrMin= 4.05D-05
 ErrMax= 4.05D-05  0.00D+00 EMaxC= 1.00D-01 BMatC= 8.56D-07 BMatP= 8.56D-07
 IDIUse=1 WtCom= 1.00D+00 WtEn= 0.00D+00
 Coeff-Com:  0.100D+01
 Coeff:      0.100D+01
 Gap=     0.172 Goal=   None    Shift=    0.000
 RMSDP=6.49D-06 MaxDP=3.19D-04 DE=-5.61D-05 OVMax= 3.04D-04

 Cycle  10  Pass 1  IDiag  1:
 RMSU=  2.79D-05    CP:  1.00D+00
 E= -955.724909637737     Delta-E=       -0.000000433356 Rises=F Damp=F
 DIIS: error= 2.87D-05 at cycle   2 NSaved=   2.
 NSaved= 2 IEnMin= 2 EnMin= -955.724909637737     IErMin= 2 ErrMin= 2.87D-05
 ErrMax= 2.87D-05  0.00D+00 EMaxC= 1.00D-01 BMatC= 5.44D-07 BMatP= 8.56D-07
 IDIUse=1 WtCom= 1.00D+00 WtEn= 0.00D+00
 Coeff-Com:  0.417D+00 0.583D+00
 Coeff:      0.417D+00 0.583D+00
 Gap=     0.172 Goal=   None    Shift=    0.000
 RMSDP=3.23D-06 MaxDP=2.25D-04 DE=-4.33D-07 OVMax= 3.77D-04

 Cycle  11  Pass 1  IDiag  1:
 RMSU=  3.22D-06    CP:  1.00D+00  9.95D-01
 E= -955.724909763966     Delta-E=       -0.000000126229 Rises=F Damp=F
 DIIS: error= 2.61D-05 at cycle   3 NSaved=   3.
 NSaved= 3 IEnMin= 3 EnMin= -955.724909763966     IErMin= 3 ErrMin= 2.61D-05
 ErrMax= 2.61D-05  0.00D+00 EMaxC= 1.00D-01 BMatC= 4.00D-07 BMatP= 5.44D-07
 IDIUse=1 WtCom= 1.00D+00 WtEn= 0.00D+00
 Coeff-Com:  0.677D-02 0.459D+00 0.534D+00
 Coeff:      0.677D-02 0.459D+00 0.534D+00
 Gap=     0.172 Goal=   None    Shift=    0.000
 RMSDP=1.59D-06 MaxDP=1.10D-04 DE=-1.26D-07 OVMax= 2.03D-04

 Cycle  12  Pass 1  IDiag  1:
 RMSU=  5.63D-07    CP:  1.00D+00  1.01D+00  5.50D-01
 E= -955.724910075089     Delta-E=       -0.000000311122 Rises=F Damp=F
 DIIS: error= 6.14D-06 at cycle   4 NSaved=   4.
 NSaved= 4 IEnMin= 4 EnMin= -955.724910075089     IErMin= 4 ErrMin= 6.14D-06
 ErrMax= 6.14D-06  0.00D+00 EMaxC= 1.00D-01 BMatC= 1.26D-08 BMatP= 4.00D-07
 IDIUse=1 WtCom= 1.00D+00 WtEn= 0.00D+00
 Coeff-Com: -0.747D-02 0.264D+00 0.328D+00 0.416D+00
 Coeff:     -0.747D-02 0.264D+00 0.328D+00 0.416D+00
 Gap=     0.172 Goal=   None    Shift=    0.000
 RMSDP=3.25D-07 MaxDP=1.50D-05 DE=-3.11D-07 OVMax= 2.25D-05

 Cycle  13  Pass 1  IDiag  1:
 RMSU=  1.72D-07    CP:  1.00D+00  1.01D+00  5.51D-01  5.10D-01
 E= -955.724910085432     Delta-E=       -0.000000010344 Rises=F Damp=F
 DIIS: error= 8.33D-07 at cycle   5 NSaved=   5.
 NSaved= 5 IEnMin= 5 EnMin= -955.724910085432     IErMin= 5 ErrMin= 8.33D-07
 ErrMax= 8.33D-07  0.00D+00 EMaxC= 1.00D-01 BMatC= 5.71D-10 BMatP= 1.26D-08
 IDIUse=1 WtCom= 1.00D+00 WtEn= 0.00D+00
 Coeff-Com: -0.483D-02 0.130D+00 0.165D+00 0.246D+00 0.463D+00
 Coeff:     -0.483D-02 0.130D+00 0.165D+00 0.246D+00 0.463D+00
 Gap=     0.172 Goal=   None    Shift=    0.000
 RMSDP=8.66D-08 MaxDP=4.66D-06 DE=-1.03D-08 OVMax= 7.51D-06

 Cycle  14  Pass 1  IDiag  1:
 RMSU=  6.63D-08    CP:  1.00D+00  1.01D+00  5.53D-01  5.40D-01  6.96D-01
 E= -955.724910085803     Delta-E=       -0.000000000371 Rises=F Damp=F
 DIIS: error= 2.79D-07 at cycle   6 NSaved=   6.
 NSaved= 6 IEnMin= 6 EnMin= -955.724910085803     IErMin= 6 ErrMin= 2.79D-07
 ErrMax= 2.79D-07  0.00D+00 EMaxC= 1.00D-01 BMatC= 5.31D-11 BMatP= 5.71D-10
 IDIUse=1 WtCom= 1.00D+00 WtEn= 0.00D+00
 Coeff-Com: -0.158D-02 0.341D-01 0.448D-01 0.782D-01 0.261D+00 0.583D+00
 Coeff:     -0.158D-02 0.341D-01 0.448D-01 0.782D-01 0.261D+00 0.583D+00
 Gap=     0.172 Goal=   None    Shift=    0.000
 RMSDP=2.83D-08 MaxDP=1.84D-06 DE=-3.71D-10 OVMax= 2.39D-06

 Cycle  15  Pass 1  IDiag  1:
 RMSU=  2.10D-08    CP:  1.00D+00  1.01D+00  5.54D-01  5.38D-01  7.60D-01
                    CP:  7.71D-01
 E= -955.724910085917     Delta-E=       -0.000000000113 Rises=F Damp=F
 DIIS: error= 1.40D-07 at cycle   7 NSaved=   7.
 NSaved= 7 IEnMin= 7 EnMin= -955.724910085917     IErMin= 7 ErrMin= 1.40D-07
 ErrMax= 1.40D-07  0.00D+00 EMaxC= 1.00D-01 BMatC= 1.04D-11 BMatP= 5.31D-11
 IDIUse=1 WtCom= 1.00D+00 WtEn= 0.00D+00
 Coeff-Com: -0.294D-03 0.311D-02 0.488D-02 0.145D-01 0.915D-01 0.363D+00
 Coeff-Com:  0.524D+00
 Coeff:     -0.294D-03 0.311D-02 0.488D-02 0.145D-01 0.915D-01 0.363D+00
 Coeff:      0.524D+00
 Gap=     0.172 Goal=   None    Shift=    0.000
 RMSDP=1.04D-08 MaxDP=6.22D-07 DE=-1.13D-10 OVMax= 9.30D-07

 Cycle  16  Pass 1  IDiag  1:
 RMSU=  6.27D-09    CP:  1.00D+00  1.01D+00  5.54D-01  5.41D-01  7.64D-01
                    CP:  8.17D-01  6.41D-01
 E= -955.724910085908     Delta-E=        0.000000000009 Rises=F Damp=F
 DIIS: error= 3.59D-08 at cycle   8 NSaved=   8.
 NSaved= 8 IEnMin= 7 EnMin= -955.724910085917     IErMin= 8 ErrMin= 3.59D-08
 ErrMax= 3.59D-08  0.00D+00 EMaxC= 1.00D-01 BMatC= 1.08D-12 BMatP= 1.04D-11
 IDIUse=1 WtCom= 1.00D+00 WtEn= 0.00D+00
 Coeff-Com:  0.214D-04-0.260D-02-0.293D-02-0.103D-02 0.215D-01 0.148D+00
 Coeff-Com:  0.308D+00 0.529D+00
 Coeff:      0.214D-04-0.260D-02-0.293D-02-0.103D-02 0.215D-01 0.148D+00
 Coeff:      0.308D+00 0.529D+00
 Gap=     0.172 Goal=   None    Shift=    0.000
 RMSDP=3.38D-09 MaxDP=1.33D-07 DE= 8.64D-12 OVMax= 3.30D-07

 SCF Done:  E(RB3LYP) =  -955.724910086     A.U. after   16 cycles
            NFock= 16  Conv=0.34D-08     -V/T= 2.0094
 KE= 9.467948105223D+02 PE=-5.581386013723D+03 EE= 2.000253000304D+03
 Leave Link  502 at Fri Jan 26 11:39:57 2024, MaxMem=    33554432 cpu:        93.0
 (Enter C:\G09W\l601.exe)
 Copying SCF densities to generalized density rwf, IOpCl= 0 IROHF=0.

 **********************************************************************

            Population analysis using the SCF density.

 **********************************************************************

 Orbital symmetries:
       Occupied  (A) (A) (A) (A) (A) (A) (A) (A) (A) (A) (A) (A)
                 (A) (A) (A) (A) (A) (A) (A) (A) (A) (A) (A) (A)
                 (A) (A) (A) (A) (A) (A) (A) (A) (A) (A) (A) (A)
                 (A) (A) (A) (A) (A) (A) (A) (A) (A) (A) (A) (A)
                 (A) (A) (A) (A) (A) (A) (A) (A) (A) (A) (A) (A)
                 (A) (A) (A) (A) (A) (A) (A) (A) (A) (A) (A) (A)
                 (A) (A) (A) (A)
       Virtual   (A) (A) (A) (A) (A) (A) (A) (A) (A) (A) (A) (A)
                 (A) (A) (A) (A) (A) (A) (A) (A) (A) (A) (A) (A)
                 (A) (A) (A) (A) (A) (A) (A) (A) (A) (A) (A) (A)
                 (A) (A) (A) (A) (A) (A) (A) (A) (A) (A) (A) (A)
                 (A) (A) (A) (A) (A) (A) (A) (A) (A) (A) (A) (A)
                 (A) (A) (A) (A) (A) (A) (A) (A) (A) (A) (A) (A)
                 (A) (A) (A) (A) (A) (A) (A) (A) (A) (A) (A) (A)
                 (A) (A) (A) (A) (A) (A) (A) (A) (A) (A) (A) (A)
                 (A) (A) (A) (A) (A) (A) (A) (A) (A) (A) (A) (A)
                 (A) (A) (A) (A) (A) (A) (A) (A) (A) (A) (A) (A)
                 (A) (A) (A) (A) (A) (A) (A) (A) (A) (A) (A) (A)
                 (A) (A) (A) (A) (A) (A) (A) (A) (A) (A) (A) (A)
                 (A) (A) (A) (A) (A) (A) (A) (A) (A) (A) (A) (A)
                 (A) (A) (A) (A) (A) (A) (A) (A) (A) (A) (A) (A)
                 (A) (A) (A) (A) (A) (A) (A) (A) (A) (A) (A) (A)
                 (A) (A) (A) (A) (A) (A) (A) (A) (A) (A) (A) (A)
                 (A) (A) (A) (A) (A) (A) (A) (A) (A) (A) (A) (A)
                 (A) (A) (A) (A) (A) (A) (A) (A) (A) (A) (A) (A)
                 (A) (A) (A) (A) (A) (A) (A) (A) (A) (A) (A) (A)
                 (A) (A) (A) (A) (A) (A) (A) (A) (A) (A) (A) (A)
                 (A) (A) (A) (A) (A) (A) (A) (A) (A) (A) (A) (A)
                 (A) (A) (A) (A) (A) (A) (A) (A) (A) (A) (A) (A)
                 (A) (A) (A) (A) (A) (A) (A) (A) (A) (A) (A)
 The electronic state is 1-A.
 Alpha  occ. eigenvalues --  -19.20372 -19.14010 -19.10982 -14.37988 -14.35516
 Alpha  occ. eigenvalues --  -10.32023 -10.28569 -10.24482 -10.23742 -10.21787
 Alpha  occ. eigenvalues --  -10.21727 -10.21067 -10.19587 -10.19194 -10.18874
 Alpha  occ. eigenvalues --  -10.18785 -10.18261 -10.18174 -10.18044 -10.18033
 Alpha  occ. eigenvalues --  -10.17745  -1.10980  -1.02836  -1.02008  -0.97765
 Alpha  occ. eigenvalues --   -0.92362  -0.83492  -0.81632  -0.79658  -0.76246
 Alpha  occ. eigenvalues --   -0.73397  -0.73070  -0.71264  -0.69537  -0.66178
 Alpha  occ. eigenvalues --   -0.62057  -0.61534  -0.59216  -0.58359  -0.56214
 Alpha  occ. eigenvalues --   -0.55111  -0.53606  -0.52741  -0.49268  -0.48315
 Alpha  occ. eigenvalues --   -0.48171  -0.47534  -0.46890  -0.45990  -0.44330
 Alpha  occ. eigenvalues --   -0.44320  -0.43726  -0.42591  -0.42418  -0.41848
 Alpha  occ. eigenvalues --   -0.41205  -0.40786  -0.40047  -0.39240  -0.38428
 Alpha  occ. eigenvalues --   -0.37664  -0.37369  -0.37141  -0.36169  -0.35691
 Alpha  occ. eigenvalues --   -0.34668  -0.33062  -0.32894  -0.30849  -0.28311
 Alpha  occ. eigenvalues --   -0.27191  -0.27019  -0.25120  -0.24301  -0.22001
 Alpha  occ. eigenvalues --   -0.20033
 Alpha virt. eigenvalues --   -0.02867  -0.00814   0.00361   0.02950   0.06181
 Alpha virt. eigenvalues --    0.07468   0.07870   0.08634   0.10478   0.11247
 Alpha virt. eigenvalues --    0.11760   0.12357   0.12995   0.14213   0.14708
 Alpha virt. eigenvalues --    0.14934   0.15474   0.16071   0.16689   0.17057
 Alpha virt. eigenvalues --    0.17710   0.18111   0.18727   0.18945   0.19998
 Alpha virt. eigenvalues --    0.20532   0.21489   0.22371   0.24041   0.24617
 Alpha virt. eigenvalues --    0.25278   0.27073   0.28064   0.28556   0.30579
 Alpha virt. eigenvalues --    0.31779   0.32418   0.33619   0.34333   0.35463
 Alpha virt. eigenvalues --    0.37557   0.40072   0.41052   0.42148   0.44038
 Alpha virt. eigenvalues --    0.47731   0.49618   0.49743   0.50749   0.51688
 Alpha virt. eigenvalues --    0.52164   0.52712   0.53739   0.53962   0.54504
 Alpha virt. eigenvalues --    0.55161   0.56120   0.56660   0.57650   0.58196
 Alpha virt. eigenvalues --    0.59417   0.59626   0.60029   0.60392   0.61054
 Alpha virt. eigenvalues --    0.61726   0.62364   0.62687   0.63010   0.63295
 Alpha virt. eigenvalues --    0.64651   0.65000   0.66145   0.66347   0.67915
 Alpha virt. eigenvalues --    0.69314   0.69798   0.70731   0.71262   0.74353
 Alpha virt. eigenvalues --    0.74651   0.75369   0.77151   0.77898   0.78409
 Alpha virt. eigenvalues --    0.79391   0.81212   0.81478   0.81869   0.82575
 Alpha virt. eigenvalues --    0.82681   0.84721   0.84972   0.85460   0.85865
 Alpha virt. eigenvalues --    0.86695   0.87093   0.87805   0.88689   0.89493
 Alpha virt. eigenvalues --    0.89896   0.90751   0.91174   0.91961   0.92646
 Alpha virt. eigenvalues --    0.93815   0.94579   0.95430   0.96079   0.96532
 Alpha virt. eigenvalues --    0.97755   0.97984   0.98779   0.99738   1.00736
 Alpha virt. eigenvalues --    1.02210   1.03334   1.05523   1.06199   1.07589
 Alpha virt. eigenvalues --    1.09807   1.11050   1.12081   1.12711   1.13813
 Alpha virt. eigenvalues --    1.15734   1.16097   1.17951   1.18798   1.20090
 Alpha virt. eigenvalues --    1.22592   1.25204   1.26142   1.26873   1.29944
 Alpha virt. eigenvalues --    1.33146   1.34091   1.35230   1.36705   1.37353
 Alpha virt. eigenvalues --    1.38807   1.39175   1.42062   1.42412   1.42991
 Alpha virt. eigenvalues --    1.43991   1.45528   1.46976   1.48319   1.48892
 Alpha virt. eigenvalues --    1.50231   1.50937   1.51813   1.52337   1.54129
 Alpha virt. eigenvalues --    1.56017   1.59088   1.61276   1.64350   1.66757
 Alpha virt. eigenvalues --    1.68246   1.69402   1.73536   1.75938   1.77242
 Alpha virt. eigenvalues --    1.78684   1.79477   1.80108   1.81085   1.81919
 Alpha virt. eigenvalues --    1.83699   1.84633   1.85765   1.87059   1.87274
 Alpha virt. eigenvalues --    1.89238   1.90284   1.91661   1.92474   1.92560
 Alpha virt. eigenvalues --    1.95395   1.95981   1.96663   1.98605   1.99685
 Alpha virt. eigenvalues --    2.00846   2.01504   2.01797   2.02412   2.04575
 Alpha virt. eigenvalues --    2.04977   2.06582   2.07229   2.08020   2.09644
 Alpha virt. eigenvalues --    2.11085   2.14292   2.15083   2.15555   2.17135
 Alpha virt. eigenvalues --    2.18530   2.18766   2.20992   2.23661   2.25216
 Alpha virt. eigenvalues --    2.25374   2.26578   2.27115   2.28124   2.29003
 Alpha virt. eigenvalues --    2.30796   2.32726   2.34143   2.34518   2.37595
 Alpha virt. eigenvalues --    2.38299   2.39738   2.40248   2.41934   2.43296
 Alpha virt. eigenvalues --    2.46374   2.49228   2.50407   2.52710   2.53371
 Alpha virt. eigenvalues --    2.54942   2.56798   2.58624   2.61071   2.62749
 Alpha virt. eigenvalues --    2.64956   2.67201   2.67886   2.69704   2.72056
 Alpha virt. eigenvalues --    2.74057   2.77025   2.77649   2.78516   2.81233
 Alpha virt. eigenvalues --    2.83229   2.83966   2.86779   2.92892   2.95560
 Alpha virt. eigenvalues --    2.98026   3.00055   3.01891   3.08807   3.13060
 Alpha virt. eigenvalues --    3.15292   3.21429   3.25211   3.44324   3.98965
 Alpha virt. eigenvalues --    4.00497   4.03520   4.06039   4.10000   4.12907
 Alpha virt. eigenvalues --    4.15721   4.18648   4.20194   4.22175   4.23214
 Alpha virt. eigenvalues --    4.26300   4.30210   4.37187   4.39509   4.41318
 Alpha virt. eigenvalues --    4.45020   4.57208   4.59488   4.69806   4.81547
          Condensed to atoms (all electrons):
               1          2          3          4          5          6
     1  N    7.270721   0.196497  -0.051240  -0.028693   0.002384  -0.050818
     2  C    0.196497   5.119589   0.368915   0.338536  -0.068951   0.319349
     3  H   -0.051240   0.368915   0.529848  -0.032308  -0.000263  -0.034963
     4  C   -0.028693   0.338536  -0.032308   4.362875   0.513793  -0.032268
     5  O    0.002384  -0.068951  -0.000263   0.513793   8.093052   0.000368
     6  C   -0.050818   0.319349  -0.034963  -0.032268   0.000368   5.249522
     7  H    0.004930  -0.041574   0.001413  -0.004413   0.005596   0.348540
     8  H   -0.008879  -0.032608  -0.006027   0.005309   0.000110   0.361847
     9  C   -0.009692  -0.041333   0.004907  -0.008457  -0.001502   0.362646
    10  C    0.005753  -0.004149   0.000076  -0.000585  -0.000018  -0.087757
    11  H    0.000290   0.000056  -0.000005   0.000022   0.000000  -0.002665
    12  C   -0.000778  -0.002209  -0.000036   0.003030  -0.000449  -0.055577
    13  N   -0.000068   0.000058   0.000000   0.000003   0.000000   0.005278
    14  H   -0.000002   0.000000   0.000000   0.000000   0.000000  -0.000098
    15  C    0.000059  -0.000011   0.000003  -0.000096   0.000002   0.010432
    16  C    0.000027  -0.000123  -0.000019   0.003057  -0.004298  -0.013172
    17  H    0.000004  -0.000436   0.000023   0.000645   0.011266   0.002764
    18  C    0.000000   0.000002   0.000000  -0.000004   0.000000  -0.000204
    19  H    0.000000   0.000000   0.000000   0.000000   0.000000   0.000002
    20  C    0.000000  -0.000013   0.000000   0.000001   0.000072   0.000061
    21  H    0.000000   0.000000   0.000000   0.000001  -0.000004   0.000000
    22  C    0.000000  -0.000001   0.000000  -0.000003   0.000001   0.000005
    23  H    0.000000   0.000000   0.000000   0.000000   0.000000   0.000000
    24  O   -0.004360  -0.089000   0.001975   0.258843  -0.079005  -0.002134
    25  H    0.278991  -0.027853   0.005164  -0.008030   0.000166  -0.000648
    26  C   -0.000040   0.007398  -0.000156  -0.020799   0.005739  -0.000156
    27  H   -0.000015   0.000002   0.000003   0.004547   0.000696  -0.000001
    28  H   -0.000045   0.000183   0.000027  -0.004813   0.007078  -0.000029
    29  H    0.000011  -0.000439  -0.000014  -0.004383   0.003552   0.000115
    30  C    0.244607  -0.020139  -0.001487   0.004113  -0.000029  -0.003598
    31  C   -0.111718   0.006204   0.000729   0.000056   0.000000  -0.000529
    32  C   -0.013868   0.000848  -0.000055  -0.000116   0.000000   0.000025
    33  C    0.005295  -0.000130  -0.000018   0.000000   0.000000   0.000014
    34  O   -0.112340   0.007540   0.013778   0.000725   0.000000  -0.005137
    35  H    0.000158  -0.000002   0.000001   0.000000   0.000000   0.000000
    36  H    0.010017   0.000046  -0.000102   0.000073   0.000000   0.000054
    37  H   -0.000047   0.000001   0.000000   0.000000   0.000000   0.000000
    38  H   -0.000022  -0.000007   0.000001   0.000000   0.000000  -0.000001
    39  H    0.000141   0.000002  -0.000001   0.000000   0.000000   0.000000
               7          8          9         10         11         12
     1  N    0.004930  -0.008879  -0.009692   0.005753   0.000290  -0.000778
     2  C   -0.041574  -0.032608  -0.041333  -0.004149   0.000056  -0.002209
     3  H    0.001413  -0.006027   0.004907   0.000076  -0.000005  -0.000036
     4  C   -0.004413   0.005309  -0.008457  -0.000585   0.000022   0.003030
     5  O    0.005596   0.000110  -0.001502  -0.000018   0.000000  -0.000449
     6  C    0.348540   0.361847   0.362646  -0.087757  -0.002665  -0.055577
     7  H    0.564403  -0.028414  -0.023062   0.004187  -0.000039  -0.006185
     8  H   -0.028414   0.549500  -0.029670  -0.006335   0.003072   0.003569
     9  C   -0.023062  -0.029670   4.943621   0.498122  -0.029133   0.397122
    10  C    0.004187  -0.006335   0.498122   5.048454   0.363526   0.013147
    11  H   -0.000039   0.003072  -0.029133   0.363526   0.554923   0.003556
    12  C   -0.006185   0.003569   0.397122   0.013147   0.003556   4.806442
    13  N   -0.000074   0.000019  -0.054827   0.312482  -0.049682  -0.054076
    14  H    0.000004  -0.000005   0.004190  -0.030952  -0.002034   0.007024
    15  C   -0.000194  -0.000078   0.009374  -0.136001   0.004864   0.448541
    16  C    0.003392  -0.000014  -0.109412   0.016061  -0.000151   0.486060
    17  H    0.001666  -0.000012  -0.007613  -0.000178  -0.000002  -0.036465
    18  C   -0.000004   0.000003   0.012817   0.004996  -0.000118  -0.048913
    19  H    0.000000   0.000000  -0.000231  -0.000032   0.000001   0.004449
    20  C    0.000008   0.000002   0.007695  -0.000414   0.000004  -0.004855
    21  H    0.000001   0.000000  -0.000183   0.000005   0.000000   0.002371
    22  C    0.000001   0.000000  -0.000052  -0.000048   0.000002  -0.036582
    23  H    0.000000   0.000000   0.000010   0.000002   0.000000   0.000975
    24  O    0.000296  -0.000091   0.002463   0.000038  -0.000001  -0.000311
    25  H   -0.000013  -0.000246   0.003411   0.001795   0.000065   0.000040
    26  C   -0.000024   0.000006   0.000012   0.000004   0.000000   0.000053
    27  H    0.000000   0.000000  -0.000003   0.000000   0.000000  -0.000010
    28  H   -0.000001   0.000000   0.000008   0.000000   0.000000   0.000013
    29  H   -0.000007   0.000000  -0.000186  -0.000006   0.000000   0.000057
    30  C    0.000061   0.004126   0.000187   0.000669   0.000478  -0.000006
    31  C    0.000003   0.000123   0.000030  -0.000060   0.000128   0.000003
    32  C    0.000000  -0.000011  -0.000001  -0.000012   0.000015   0.000002
    33  C    0.000000  -0.000005   0.000000  -0.000012   0.000009   0.000000
    34  O   -0.000006   0.008173   0.000066  -0.000065   0.000009  -0.000001
    35  H    0.000000   0.000000   0.000000  -0.000001   0.000000   0.000000
    36  H   -0.000001   0.000000  -0.000029  -0.000044  -0.000003   0.000000
    37  H    0.000000   0.000000   0.000000   0.000000   0.000000   0.000000
    38  H    0.000000   0.000003   0.000000  -0.000003   0.000054   0.000000
    39  H    0.000000  -0.000001   0.000000   0.000000   0.000000   0.000000
              13         14         15         16         17         18
     1  N   -0.000068  -0.000002   0.000059   0.000027   0.000004   0.000000
     2  C    0.000058   0.000000  -0.000011  -0.000123  -0.000436   0.000002
     3  H    0.000000   0.000000   0.000003  -0.000019   0.000023   0.000000
     4  C    0.000003   0.000000  -0.000096   0.003057   0.000645  -0.000004
     5  O    0.000000   0.000000   0.000002  -0.004298   0.011266   0.000000
     6  C    0.005278  -0.000098   0.010432  -0.013172   0.002764  -0.000204
     7  H   -0.000074   0.000004  -0.000194   0.003392   0.001666  -0.000004
     8  H    0.000019  -0.000005  -0.000078  -0.000014  -0.000012   0.000003
     9  C   -0.054827   0.004190   0.009374  -0.109412  -0.007613   0.012817
    10  C    0.312482  -0.030952  -0.136001   0.016061  -0.000178   0.004996
    11  H   -0.049682  -0.002034   0.004864  -0.000151  -0.000002  -0.000118
    12  C   -0.054076   0.007024   0.448541   0.486060  -0.036465  -0.048913
    13  N    7.020920   0.321023   0.271815   0.011787  -0.000094  -0.094325
    14  H    0.321023   0.402608  -0.026882  -0.000122   0.000004  -0.004295
    15  C    0.271815  -0.026882   4.763740  -0.063559   0.005170   0.479895
    16  C    0.011787  -0.000122  -0.063559   5.160296   0.345297  -0.059051
    17  H   -0.000094   0.000004   0.005170   0.345297   0.565771   0.000351
    18  C   -0.094325  -0.004295   0.479895  -0.059051   0.000351   5.058042
    19  H   -0.006140   0.002864  -0.040167   0.000462   0.000017   0.347887
    20  C   -0.000166  -0.000002  -0.042623   0.504305  -0.042378  -0.027718
    21  H    0.000003   0.000000   0.001024  -0.038636  -0.004838   0.004678
    22  C    0.005356  -0.000088  -0.000677  -0.024028   0.004316   0.530554
    23  H   -0.000112  -0.000002   0.002811   0.004559  -0.000166  -0.040467
    24  O   -0.000001   0.000000  -0.000077   0.000192  -0.000555   0.000004
    25  H   -0.000059  -0.000001  -0.000015  -0.000017  -0.000003   0.000001
    26  C   -0.000001   0.000000   0.000014  -0.001822   0.000031   0.000011
    27  H    0.000000   0.000000   0.000000   0.000015   0.000004   0.000000
    28  H    0.000000   0.000000   0.000000   0.000069  -0.000060   0.000000
    29  H    0.000002   0.000000  -0.000011   0.004406   0.000860  -0.000047
    30  C   -0.000004   0.000000  -0.000002   0.000000   0.000000   0.000000
    31  C   -0.000001   0.000000   0.000000   0.000000   0.000000   0.000000
    32  C    0.000000   0.000000   0.000000   0.000000   0.000000   0.000000
    33  C    0.000000   0.000000   0.000000   0.000000   0.000000   0.000000
    34  O    0.000000   0.000000   0.000000   0.000000   0.000000   0.000000
    35  H    0.000000   0.000000   0.000000   0.000000   0.000000   0.000000
    36  H    0.000001   0.000000   0.000000   0.000000   0.000000   0.000000
    37  H    0.000000   0.000000   0.000000   0.000000   0.000000   0.000000
    38  H    0.000000   0.000000   0.000000   0.000000   0.000000   0.000000
    39  H    0.000000   0.000000   0.000000   0.000000   0.000000   0.000000
              19         20         21         22         23         24
     1  N    0.000000   0.000000   0.000000   0.000000   0.000000  -0.004360
     2  C    0.000000  -0.000013   0.000000  -0.000001   0.000000  -0.089000
     3  H    0.000000   0.000000   0.000000   0.000000   0.000000   0.001975
     4  C    0.000000   0.000001   0.000001  -0.000003   0.000000   0.258843
     5  O    0.000000   0.000072  -0.000004   0.000001   0.000000  -0.079005
     6  C    0.000002   0.000061   0.000000   0.000005   0.000000  -0.002134
     7  H    0.000000   0.000008   0.000001   0.000001   0.000000   0.000296
     8  H    0.000000   0.000002   0.000000   0.000000   0.000000  -0.000091
     9  C   -0.000231   0.007695  -0.000183  -0.000052   0.000010   0.002463
    10  C   -0.000032  -0.000414   0.000005  -0.000048   0.000002   0.000038
    11  H    0.000001   0.000004   0.000000   0.000002   0.000000  -0.000001
    12  C    0.004449  -0.004855   0.002371  -0.036582   0.000975  -0.000311
    13  N   -0.006140  -0.000166   0.000003   0.005356  -0.000112  -0.000001
    14  H    0.002864  -0.000002   0.000000  -0.000088  -0.000002   0.000000
    15  C   -0.040167  -0.042623   0.001024  -0.000677   0.002811  -0.000077
    16  C    0.000462   0.504305  -0.038636  -0.024028   0.004559   0.000192
    17  H    0.000017  -0.042378  -0.004838   0.004316  -0.000166  -0.000555
    18  C    0.347887  -0.027718   0.004678   0.530554  -0.040467   0.000004
    19  H    0.612752   0.004415  -0.000174  -0.040943  -0.005526   0.000000
    20  C    0.004415   4.909175   0.357963   0.521893  -0.040205  -0.000015
    21  H   -0.000174   0.357963   0.602079  -0.041490  -0.005322   0.000000
    22  C   -0.040943   0.521893  -0.041490   4.875135   0.357184   0.000000
    23  H   -0.005526  -0.040205  -0.005322   0.357184   0.603566   0.000000
    24  O    0.000000  -0.000015   0.000000   0.000000   0.000000   8.247586
    25  H    0.000000   0.000000   0.000000   0.000000   0.000000   0.019438
    26  C    0.000000  -0.000539  -0.000008  -0.000006   0.000000   0.203958
    27  H    0.000000   0.000002   0.000000   0.000000   0.000000  -0.032074
    28  H    0.000000   0.000001   0.000000   0.000000   0.000000  -0.030389
    29  H    0.000000   0.002314   0.000078  -0.000003   0.000000  -0.030966
    30  C    0.000000   0.000000   0.000000   0.000000   0.000000   0.000181
[...]
 89338,-0.00003085,-0.00017456,0.00140850,-0.00014073,0.00005013,-0.000
 29803,0.00007487,-0.00004009,-0.00001632,-0.00010422,0.00006331,-0.000
 01304,0.00012894,-0.00015100,0.00004543,0.00002455,-0.00008631,-0.0000
 0414,0.00002574,0.00002362,0.00002363,0.00002160,0.00003089,0.00001113
 ,-0.00001264,0.00001445,0.00003231,-0.00000081,-0.00003302,0.00001917,
 -0.00000060,-0.00000854,-0.00001380,-0.00001551,-0.00000197,0.00000793
 ,0.00003856,0.00001276,-0.00000502,-0.00000680,-0.00000907,-0.00000843
 ,-0.00000793,0.00002287,-0.00001116,0.00000047,0.00000639,0.00000629,-
 0.00000818,0.00000052,-0.00000656,-0.00000557,-0.00000257,0.00000498,-
 0.00000002,0.00000321,-0.00000283,0.00000302,0.00000617,-0.00000108,0.
 00000250,-0.00000367,-0.00000094,0.00000544,-0.00000506,0.00000087,0.0
 0000507,0.00000021,-0.00000258,0.00010063,-0.00005921,0.00003459,-0.00
 032661,-0.00044076,-0.00026737,-0.00007379,0.00007080,0.00007415,-0.00
 000548,0.00000555,-0.00000084,0.00000806,-0.00001265,0.00000031,0.0000
 1628,-0.00001270,-0.00000382,0.00838191,0.00511992,-0.00258558,-0.0042
 3741,0.00898785,-0.00561251,0.08268494,-0.10056603,0.08438785,-0.00472
 971,-0.00390171,-0.00002385,-0.00189541,-0.00009492,-0.00199345,-0.090
 89869,0.09568367,-0.00044636,0.00077325,0.00024631,-0.00004530,0.00002
 470,0.00041246,0.00004555,-0.00005959,-0.00000447,0.00014261,-0.000133
 87,-0.00036607,-0.00012754,0.00012697,0.00007740,0.00000891,0.00005716
 ,-0.00000686,-0.00003206,-0.00001731,-0.00001825,0.00001553,0.00001583
 ,0.00002895,0.00002973,-0.00000100,-0.00003737,0.00001768,0.00006241,-
 0.00003464,0.00000239,0.00001983,-0.00000258,0.00002600,-0.00002211,-0
 .00000271,-0.00005520,-0.00004155,0.00004900,-0.00001387,0.00000875,-0
 .00000513,-0.00001403,-0.00001946,0.00001399,-0.00000122,-0.00000152,-
 0.00000273,0.00000777,-0.00000288,0.00000226,0.00000759,0.00000094,-0.
 00000256,-0.00000310,-0.00000424,0.00000286,-0.00000222,-0.00000271,0.
 00000262,-0.00000272,0.00000239,0.00000056,-0.00000827,0.00000430,0.00
 000152,-0.00000433,-0.00000026,0.00000182,-0.00004938,0.00007188,0.000
 21346,-0.00027208,-0.00012154,-0.00025990,0.00002475,-0.00002536,-0.00
 004201,-0.00001078,0.00000319,0.00001537,-0.00000933,0.00000905,0.0000
 0076,-0.00000463,0.00000767,0.00000542,0.00217064,-0.00538963,-0.00104
 321,-0.01968936,0.01396939,-0.01982676,-0.11318730,0.08171869,-0.19227
 041,-0.00084902,0.00229514,0.00097560,-0.00022410,0.00156542,-0.002248
 19,0.12534913,-0.08923206,0.20466060,-0.00061513,-0.00010277,-0.002192
 29,0.00003567,-0.00012752,0.00021108,0.00000737,0.00000430,0.00004905,
 0.00007951,0.00010683,-0.00032481,-0.00002090,-0.00005158,0.00010491,-
 0.00002097,0.00004655,-0.00000617,-0.00001017,-0.00001746,-0.00000912,
 -0.00001750,-0.00001240,-0.00001498,0.00002336,0.00002723,-0.00001959,
 0.00001311,0.00000649,0.00001330,-0.00000513,-0.00000454,-0.00001150,-
 0.00001212,-0.00001287,0.00000968,-0.00000609,-0.00002991,0.00002452,-
 0.00001217,-0.00000302,-0.00000852,-0.00000795,0.00001354,-0.00000743,
 -0.00000233,0.00000803,-0.00000286,-0.00000080,-0.00000142,-0.00000009
 ,-0.00000365,-0.00000273,0.00000564,-0.00000134,0.00000029,-0.00000082
 ,0.00000333,0.00000194,-0.00000201,0.00000267,-0.00000211,0.00000002,0
 .00000350,-0.00000282,0.00000046,0.00000229,-0.00000014,-0.00000107,0.
 00011622,-0.00017041,0.00022112,-0.00084784,0.00000494,-0.00165263,-0.
 00005299,0.00007885,0.00006401,-0.00000319,0.00001971,-0.00000151,0.00
 001549,-0.00002355,0.00000864,0.00000944,-0.00001163,-0.00000854,-0.00
 536838,-0.00288707,-0.00029732,0.00204794,0.00107443,0.00149161,-0.160
 75033,0.13934523,0.05107783,0.00694070,0.00678760,-0.00139485,0.000720
 90,-0.00000908,0.00150522,-0.00715636,0.01075772,0.00601113,0.16501276
 ,0.00025320,0.00074502,0.00015398,-0.00051705,0.00020946,0.00034020,0.
 00007099,-0.00004229,0.00010871,0.00000340,0.00010307,-0.00010195,-0.0
 0001139,-0.00001573,0.00002659,0.00003426,0.00002155,-0.00000145,0.000
 00156,-0.00000186,0.00000375,-0.00001795,-0.00000966,-0.00000543,0.000
 01597,0.00003250,0.00000187,0.00005794,-0.00000360,0.00001344,0.000003
 00,-0.00001284,-0.00002792,-0.00002036,-0.00001195,0.00001214,0.000000
 92,-0.00002178,0.00006671,-0.00001707,-0.00002085,-0.00003104,-0.00002
 070,0.00002003,-0.00001618,-0.00000590,0.00001429,-0.00000231,0.000000
 03,-0.00000224,0.00000096,-0.00000785,-0.00000291,0.00001468,-0.000003
 83,-0.00000189,-0.00000423,0.00000669,0.00000452,-0.00000221,0.0000035
 9,-0.00000391,-0.00000114,0.00000425,-0.00000347,0.00000440,0.00000229
 ,-0.00000107,-0.00000294,-0.00008812,-0.00010309,0.00001467,-0.0009544
 9,0.00024616,-0.00047965,0.00000513,0.00001596,-0.00004141,0.00000762,
 0.00002287,0.00001501,0.00000932,-0.00001835,0.00001321,-0.00001023,0.
 00000249,0.00000121,-0.00317015,-0.00401072,0.00050152,0.00618589,-0.0
 0338242,-0.00080492,0.14030384,-0.19011315,-0.06476436,0.00538280,0.00
 783861,-0.00214966,0.00009983,0.00063287,0.00130172,0.00667877,-0.0051
 9337,-0.00459693,-0.15385526,0.19409113,-0.00091727,0.00087035,0.00055
 706,-0.00048524,0.00059013,-0.00024316,0.00003880,-0.00002920,0.000046
 97,-0.00017043,0.00016658,0.00000532,0.00012543,-0.00014945,0.00000085
 ,0.00010262,-0.00018095,0.00010636,0.00006804,0.00005232,0.00004661,-0
 .00000452,-0.00000095,-0.00002326,-0.00003493,0.00001691,0.00005743,-0
 .00001810,-0.00009871,0.00004626,0.00000367,-0.00001289,-0.00000165,-0
 .00002933,0.00002591,0.00000521,0.00006474,0.00005580,-0.00007094,0.00
 001388,-0.00000839,0.00000779,0.00000569,0.00002381,-0.00001395,0.0000
 0267,-0.00000062,0.00000745,-0.00001245,0.00000367,-0.00000727,-0.0000
 0656,-0.00000081,-0.00000029,0.00000434,0.00000688,-0.00000259,0.00000
 010,0.00000472,-0.00000209,0.00000269,-0.00000300,-0.00000020,0.000008
 48,-0.00000493,-0.00000316,0.00000652,0.00000101,-0.00000189,0.0002487
 2,-0.00013777,-0.00008995,-0.00168016,-0.00100300,-0.00122223,-0.00010
 447,0.00009190,0.00021041,0.00001877,-0.00000451,-0.00003073,0.0000180
 8,-0.00002196,-0.00001221,0.00003242,-0.00002553,-0.00002749,0.0034602
 2,-0.00093983,0.00055453,0.02135207,-0.02250272,-0.00562780,0.04877212
 ,-0.05993074,-0.08274130,-0.00263512,-0.00061101,-0.00369672,-0.000825
 32,0.00003956,0.00026280,-0.01310304,0.01438409,0.00887840,-0.05571316
 ,0.07045769,0.08350599,-0.00067263,0.00075227,-0.00111862,-0.00018784,
 -0.00022257,0.00025829,0.00001274,-0.00001316,-0.00000384,0.00008257,-
 0.00011998,-0.00020124,-0.00009522,0.00011560,0.00003568,-0.00003594,0
 .00010506,-0.00005512,-0.00004013,-0.00002640,-0.00002397,0.00000508,0
 .00000213,0.00002697,0.00002329,-0.00000623,-0.00002393,0.00003522,0.0
 0004335,-0.00003752,0.00001638,0.00002397,-0.00000522,0.00002016,-0.00
 001542,-0.00000298,-0.00005008,-0.00003045,0.00004639,-0.00001564,0.00
 000967,-0.00001176,-0.00002254,-0.00001471,0.00001529,-0.00000034,-0.0
 0000385,-0.00000298,0.00000790,-0.00000275,0.00000342,0.00001088,0.000
 00273,-0.00000380,-0.00000385,-0.00000531,0.00000265,-0.00000317,-0.00
 000484,0.00000313,-0.00000230,0.00000211,0.00000067,-0.00000928,0.0000
 0687,0.00000129,-0.00000457,-0.00000006,0.00000155,-0.00006475,0.00005
 296,0.00011200,0.00009789,0.00004639,-0.00004538,0.00003911,-0.0000327
 4,-0.00005020,-0.00000341,0.00000219,0.00001038,-0.00000733,0.00000754
 ,0.00000235,-0.00000848,0.00000803,0.00000415,-0.00118369,0.00222689,0
 .00362185,-0.01334053,0.00829291,-0.01706861,0.00073027,-0.00121063,-0
 .00119136,-0.13549013,0.05202912,-0.11267493,0.00070725,-0.00054379,-0
 .00028725,0.00024046,0.00009435,0.00099560,0.00026020,-0.00034603,0.00
 007065,0.14392812,0.00088004,-0.00078886,0.00117830,0.00013250,0.00013
 053,-0.00041663,-0.00001235,0.00001913,0.00000310,-0.00006596,0.000141
 91,0.00022629,0.00011110,-0.00013885,-0.00003245,0.00004013,-0.0000993
 6,0.00002118,0.00003176,0.00002910,0.00002739,-0.00001180,-0.00000813,
 -0.00000946,-0.00002770,0.00000043,0.00004425,0.00002254,-0.00007026,0
 .00001941,0.00002025,0.00000021,-0.00000679,-0.00001840,0.00002091,-0.
 00000100,0.00003662,0.00004637,-0.00003118,0.00000528,-0.00000617,-0.0
 0000520,-0.00000830,0.00001165,-0.00000397,0.00000207,-0.00000181,0.00
 000645,-0.00000784,0.00000192,-0.00000466,0.00000026,0.00000154,-0.000
 00005,0.00000109,0.00000236,-0.00000223,-0.00000257,0.00000263,0.00000
 109,0.00000122,-0.00000217,-0.00000050,0.00000122,0.00000077,-0.000000
 23,0.00000299,0.00000066,-0.00000177,0.00006458,-0.00006255,-0.0001108
 9,-0.00007025,-0.00002048,0.00004201,-0.00004277,0.00003443,0.00004932
 ,0.00000485,-0.00000045,-0.00000968,0.00000882,-0.00000908,-0.00000147
 ,0.00000840,-0.00000886,-0.00000499,0.00284357,-0.00125336,-0.00240587
 ,0.01172562,-0.00864239,0.01754224,-0.00080909,0.00040952,0.00130778,0
 .05139761,-0.08201517,0.06806023,0.00033705,0.00022048,-0.00007244,-0.
 00001540,0.00029301,-0.00088567,-0.00044059,0.00006649,0.00003178,-0.0
 6081017,0.08590089,0.00010332,-0.00017551,0.00077683,0.00020557,0.0000
 2222,0.00008122,0.00001244,-0.00002793,-0.00000549,0.00006176,-0.00006
 694,-0.00002208,-0.00003844,0.00003926,0.00000275,0.00003206,-0.000022
 91,-0.00001101,-0.00000639,0.00000824,0.00000531,0.00001469,0.00000818
 ,0.00002592,-0.00000106,-0.00000392,-0.00000075,0.00003389,0.00000409,
 -0.00002375,0.00001716,0.00002054,-0.00000229,0.00001471,0.00000174,-0
 .00000679,-0.00003488,0.00000527,0.00001165,0.00000010,0.00000824,-0.0
 0000331,-0.00001668,-0.00002146,0.00001568,0.00000221,-0.00000840,0.00
 000048,0.00000448,-0.00000099,0.00000114,0.00001209,0.00000436,-0.0000
 0685,-0.00000171,-0.00000415,0.00000255,-0.00000693,-0.00000498,0.0000
 0478,-0.00000313,0.00000289,0.00000056,-0.00000965,0.00000885,-0.00000
 004,-0.00000475,0.00000039,0.00000187,-0.00004476,0.00003948,0.0000483
 7,-0.00007336,-0.00005451,0.00001428,0.00002623,-0.00002362,-0.0000277
 2,0.00000005,-0.00000020,0.00000407,-0.00000324,0.00000537,0.00000085,
 -0.00000503,0.00000330,0.00000101,0.00222434,-0.00154070,-0.00253789,0
 .00828569,-0.00540894,0.00926704,0.00093368,-0.00070897,0.00090005,-0.
 11449786,0.07071294,-0.20098138,-0.00123328,0.00080850,0.00085787,-0.0
 0014509,-0.00002029,0.00016956,0.00002872,0.00018028,0.00025880,0.1239
 1831,-0.07444848,0.21620735,-0.00017610,-0.00043627,-0.00002097,0.0000
 7297,0.00001879,0.00004730,-0.00000141,0.00000764,-0.00001215,-0.00002
 241,0.00002748,0.00008578,0.00001039,-0.00001550,-0.00002537,-0.000003
 86,-0.00000744,0.00000553,0.00000779,-0.00000532,0.00000067,-0.0000001
 5,-0.00000111,-0.00001898,0.00002280,0.00002098,-0.00001559,-0.0000531
 4,0.00003754,0.00002720,-0.00003680,-0.00003477,-0.00003307,-0.0000093
 0,-0.00002485,0.00000839,0.00002311,-0.00003519,0.00002087,-0.00001138
 ,-0.00000657,-0.00000183,0.00002243,0.00002126,-0.00001643,-0.00000363
 ,0.00001111,-0.00000472,-0.00000081,-0.00000057,0.00000129,-0.00001410
 ,-0.00000685,0.00000706,0.00000109,0.00000314,-0.00000181,0.00001103,0
 .00000374,-0.00000672,0.00000336,-0.00000208,-0.00000035,0.00001240,-0
 .00001129,-0.00000048,0.00000365,-0.00000081,-0.00000084,0.00000203,-0
 .00001292,-0.00006243,0.00005664,0.00009132,0.00009950,0.00000106,0.00
 000319,0.00001265,0.00000421,-0.00000127,-0.00000540,0.00000107,-0.000
 00194,-0.00000061,-0.00000051,0.00000065,-0.00000156,0.00049306,0.0000
 2545,0.00044388,0.01254916,0.01979586,0.01172578,-0.00192817,0.0017071
 5,0.00026029,-0.10348372,-0.09042941,-0.05573657,0.00019247,0.00014359
 ,-0.00004734,0.00060471,0.00056082,0.00007464,-0.00143536,-0.00115963,
 0.00086485,-0.00860746,-0.01410665,-0.00622400,0.11131467,0.00041244,0
 .00000848,0.00047988,-0.00012795,-0.00002290,-0.00013075,0.00003327,-0
 .00002850,0.00001736,0.00001301,-0.00001108,-0.00012632,0.00003393,-0.
 00001950,0.00005630,0.00003451,-0.00004865,-0.00003991,-0.00000124,0.0
 0001878,0.00001301,0.00000073,0.00000154,0.00003301,-0.00002800,0.0000
 0287,0.00004628,0.00008817,-0.00009445,-0.00001938,0.00005302,0.000050
 20,0.00000706,0.00000687,0.00003157,-0.00001466,-0.00001760,0.00007157
 ,-0.00001596,0.00001049,-0.00000258,-0.00001296,-0.00003213,-0.0000307
 0,0.00002020,0.00000868,-0.00001302,0.00001306,-0.00000305,-0.00000027
 ,-0.00000826,0.00002024,0.00000967,-0.00000778,-0.00000164,-0.00000410
 ,-0.00000049,-0.00001546,-0.00000169,0.00001273,-0.00000579,0.00000205
 ,-0.00000129,-0.00001664,0.00001576,0.00000300,-0.00000441,0.00000079,
 -0.00000050,0.00002425,0.00000510,0.00011183,-0.00022414,-0.00005207,-
 0.00013951,-0.00002264,0.00000191,-0.00000952,-0.00000852,0.00000117,0
 .00000888,-0.00000160,0.00000261,-0.00000091,0.00000519,-0.00000257,0.
 00000254,0.00008792,0.00044206,-0.00278721,-0.00780405,-0.01644373,-0.
 01007536,0.00211768,-0.00146021,0.00087681,-0.09196785,-0.20114120,-0.
 08781094,-0.00022547,0.00070346,0.00148339,-0.00043044,-0.00036765,0.0
 0005456,0.00090334,0.00074292,-0.00069683,0.00550123,0.01099845,0.0052
 6837,0.09911422,0.21823548,0.00046965,-0.00013208,0.00005754,-0.000054
 69,0.00003009,-0.00011739,0.00001028,0.00001216,0.00001189,-0.00005245
 ,0.00004363,0.00003640,0.00005346,-0.00004354,0.00000005,-0.00000882,-
 0.00003804,0.00002925,0.00001708,0.00001443,0.00000411,-0.00000293,-0.
 00000189,-0.00000660,-0.00004313,-0.00000767,0.00003199,0.00000363,-0.
 00008636,0.00000336,0.00001600,0.00000193,0.00005758,-0.00000865,0.000
 04221,-0.00001198,0.00002478,0.00006961,-0.00007119,0.00003752,-0.0000
 0532,0.00001618,0.00001500,-0.00001687,0.00000344,0.00000595,-0.000007
 92,0.00000721,-0.00000541,0.00000339,-0.00000447,0.00000384,0.00000449
 ,-0.00000459,0.00000363,0.00000171,-0.00000090,-0.00000918,0.00000050,
 0.00000471,-0.00000243,0.00000127,-0.00000057,-0.00000423,0.00000523,-
 0.00000056,-0.00000042,0.00000078,-0.00000019,0.00004779,-0.00001979,-
 0.00002355,-0.00006026,-0.00007337,0.00000851,-0.00002837,0.00001448,0
 .00002176,-0.00000189,-0.00000218,-0.00000261,0.00000363,-0.00000177,-
 0.00000225,0.00000693,-0.00000616,-0.00000091,-0.00048049,0.00090368,-
 0.00048424,-0.00229676,-0.01039847,-0.00785907,0.00125237,-0.00126230,
 0.00092587,-0.05751633,-0.08735989,-0.09744519,-0.00018586,-0.00040368
 ,0.00026755,-0.00064307,-0.00074722,0.00030413,0.00123055,0.00064471,-
 0.00055037,-0.01054797,-0.01937612,-0.01014880,0.05833633,0.10000794,0
 .10390472,0.00102841,-0.00032111,-0.00078287,-0.00006103,0.00010613,-0
 .00027989,-0.00006594,0.00007993,-0.00001041,-0.00010119,0.00012713,0.
 00023999,0.00007672,-0.00007368,-0.00006356,-0.00001635,-0.00002445,0.
 00004458,0.00002393,0.00001276,0.00000755,-0.00002972,-0.00003015,-0.0
 0003452,-0.00003133,-0.00001899,0.00003231,-0.00001876,-0.00007097,0.0
 0002000,0.00000687,-0.00000588,0.00002792,-0.00002069,0.00003113,-0.00
 000360,0.00004851,0.00004896,-0.00006746,0.00001976,-0.00000204,0.0000
 1349,0.00001243,0.00001210,-0.00000564,0.00000119,-0.00000305,0.000002
 15,-0.00000638,0.00000384,-0.00000083,-0.00000325,0.00000104,-0.000001
 84,0.00000383,0.00000426,-0.00000123,-0.00000149,0.00000054,-0.0000018
 6,0.00000181,-0.00000127,0.00000030,0.00000410,-0.00000141,-0.00000261
 ,0.00000343,0.00000073,-0.00000074,0.00006207,-0.00006137,-0.00019327,
 0.00033630,-0.00007218,0.00012694,-0.00002950,0.00002206,0.00005563,0.
 00001006,-0.00000370,-0.00001655,0.00000987,-0.00000841,-0.00000290,0.
 00000671,-0.00000828,-0.00000690,-0.00122186,-0.00037883,0.00422523,-0
 .01327520,-0.00825812,0.01620816,-0.00216966,0.00192225,-0.00088031,-0
 .13904168,-0.06752581,0.10640633,0.00205661,-0.00036618,-0.00230684,-0
 .00038033,-0.00043450,0.00012255,0.00105625,0.00107468,0.00045453,0.01
 363181,0.00877029,-0.01358128,-0.00962180,-0.00753054,0.01041495,0.147
 69548,-0.00040797,0.00024857,0.00022973,0.00001262,-0.00005911,0.00017
 156,0.00003003,-0.00001953,0.00001643,0.00003902,-0.00004171,-0.000141
 43,-0.00003405,0.00003119,0.00003466,-0.00000673,0.00000085,-0.0000021
 9,-0.00000553,0.00000019,-0.00000541,0.00001337,0.00000903,0.00001949,
 -0.00000718,0.00000007,-0.00000365,0.00002502,-0.00000768,-0.00001330,
 0.00001439,0.00000352,0.00001457,0.00000691,0.00000897,-0.00000647,-0.
 00002047,0.00000988,0.00000283,0.00000907,-0.00000016,0.00000040,-0.00
 000259,-0.00001702,0.00000714,0.00000151,-0.00000399,0.00000088,0.0000
 0229,-0.00000005,0.00000016,0.00000471,0.00000254,-0.00000168,-0.00000
 046,-0.00000199,0.00000063,-0.00000509,-0.00000135,0.00000316,-0.00000
 190,0.00000148,0.00000010,-0.00000578,0.00000484,0.00000064,-0.0000026
 0,0.00000014,0.00000077,-0.00001861,0.00002263,0.00009136,-0.00020602,
 0.00010584,-0.00012730,0.00000850,-0.00000703,-0.00002707,-0.00000590,
 0.00000149,0.00000805,-0.00000308,0.00000329,0.00000104,-0.00000195,0.
 00000205,0.00000342,0.00018413,0.00054426,-0.00074106,0.01465015,0.011
 35931,-0.01834806,0.00220092,-0.00210730,-0.00010701,-0.06770261,-0.09
 664631,0.08183771,0.00007985,-0.00132905,0.00094964,0.00080082,0.00076
 955,-0.00023383,-0.00141814,-0.00183283,-0.00045931,-0.00591627,-0.005
 20543,0.00539041,-0.01529348,-0.01160159,0.01818840,0.07298310,0.10575
 245,0.00053741,-0.00016566,-0.00012177,-0.00005798,0.00007237,-0.00014
 068,-0.00001430,0.00000340,0.00002964,-0.00004912,0.00004961,0.0000376
 7,0.00004792,-0.00005978,-0.00000164,0.00000340,-0.00002270,0.00001999
 ,0.00001509,0.00000814,0.00000941,-0.00000168,-0.00000318,-0.00000443,
 -0.00001223,-0.00000078,0.00001559,0.00000540,-0.00003085,0.00000819,0
 .00000895,-0.00000567,0.00000576,-0.00001241,0.00000837,0.00000204,0.0
 0002182,0.00001649,-0.00001432,0.00000327,-0.00000414,-0.00000162,0.00
 000047,0.00001038,-0.00000528,0.00000023,0.00000195,0.00000156,-0.0000
 0363,0.00000121,-0.00000145,-0.00000261,-0.00000036,0.00000131,0.00000
 069,0.00000172,-0.00000125,0.00000048,0.00000204,-0.00000080,0.0000013
 1,-0.00000149,-0.00000027,0.00000226,-0.00000176,0.00000010,0.00000229
 ,0.00000029,-0.00000112,0.00003744,-0.00003574,-0.00002974,-0.00000419
 ,-0.00003972,0.00010431,-0.00002217,0.00002406,0.00002308,0.00000022,0
 .00000099,-0.00000271,0.00000424,-0.00000574,0.00000007,0.00000461,-0.
 00000441,-0.00000159,-0.00043075,0.00046364,-0.00115928,0.00948693,0.0
 0081209,-0.01030369,0.00100117,-0.00086024,0.00110455,0.10693229,0.083
 50971,-0.17412410,-0.00185633,0.00077196,-0.00022426,0.00045397,0.0004
 2970,0.00011077,-0.00038822,-0.00084375,-0.00018899,0.01422608,0.00927
 093,-0.01488182,-0.00978479,-0.00661765,0.01103920,-0.12015750,-0.0867
 5543,0.18869760||0.00000045,-0.00000045,-0.00000069,-0.00000040,0.0000
 0021,-0.00000026,-0.00000051,0.00000004,-0.00000047,0.00000037,-0.0000
 0016,0.00000089,-0.00000014,0.00000031,0.00000038,-0.00000057,0.000000
 16,-0.00000005,-0.00000094,0.00000033,0.00000025,-0.00000103,0.0000001
 2,-0.00000033,-0.00000078,0.00000050,0.00000023,-0.00000042,0.00000001
 ,0.,-0.00000061,0.00000006,-0.00000046,-0.00000039,0.00000035,0.000000
 91,-0.00000046,0.00000009,0.00000024,-0.00000022,0.00000018,0.00000036
 ,-0.00000018,0.00000042,0.00000090,-0.00000025,0.00000033,0.00000131,-
 0.00000034,0.00000045,0.00000125,0.00000003,0.00000039,0.00000131,0.00
 000014,0.00000036,0.00000138,0.,0.00000044,0.00000179,0.00000003,0.000
 00060,0.00000212,0.00000013,0.00000052,0.00000177,0.00000029,0.0000005
 6,0.00000220,0.00000035,-0.00000020,-0.00000026,0.00000033,-0.00000021
 ,-0.00000063,0.00000120,0.00000007,0.00000077,0.00000140,-0.00000015,0
 .00000059,0.00000095,-0.00000011,0.00000064,0.00000081,0.,0.00000110,-
 0.00000037,-0.00000073,-0.00000065,-0.00000006,0.00000001,-0.00000178,
 0.00000087,-0.00000074,-0.00000175,-0.00000001,-0.00000079,-0.00000189
 ,-0.00000060,-0.00000003,-0.00000171,0.00000087,-0.00000075,-0.0000016
 7,0.00000095,-0.00000059,-0.00000100,0.00000010,-0.00000064,-0.0000023
 8,-0.00000046,-0.00000046,-0.00000207,-0.00000051,-0.00000050,-0.00000
 232|||@


 ALL THINGS ARE POSSIBLE EXCEPT SKIING THROUGH A REVOLVING DOOR.
 Job cpu time:       0 days  0 hours 21 minutes 16.0 seconds.
 File lengths (MBytes):  RWF=    530 Int=      0 D2E=      0 Chk=     11 Scr=      1
 Normal termination of Gaussian 09 at Fri Jan 26 12:28:43 2024.
