 Entering Link 1 = C:\G09W\l1.exe PID=    167756.
  
 Copyright (c) 1988,1990,1992,1993,1995,1998,2003,2009,2013,
            Gaussian, Inc.  All Rights Reserved.
  
 This is part of the Gaussian(R) 09 program.  It is based on
 the Gaussian(R) 03 system (copyright 2003, Gaussian, Inc.),
 the Gaussian(R) 98 system (copyright 1998, Gaussian, Inc.),
 the Gaussian(R) 94 system (copyright 1995, Gaussian, Inc.),
 the Gaussian 92(TM) system (copyright 1992, Gaussian, Inc.),
 the Gaussian 90(TM) system (copyright 1990, Gaussian, Inc.),
 the Gaussian 88(TM) system (copyright 1988, Gaussian, Inc.),
 the Gaussian 86(TM) system (copyright 1986, Carnegie Mellon
 University), and the Gaussian 82(TM) system (copyright 1983,
 Carnegie Mellon University). Gaussian is a federally registered
 trademark of Gaussian, Inc.
  
 This software contains proprietary and confidential information,
 including trade secrets, belonging to Gaussian, Inc.
  
 This software is provided under written license and may be
 used, copied, transmitted, or stored only in accord with that
 written license.
  
 The following legend is applicable only to US Government
 contracts under FAR:
  
                    RESTRICTED RIGHTS LEGEND
  
 Use, reproduction and disclosure by the US Government is
 subject to restrictions as set forth in subparagraphs (a)
 and (c) of the Commercial Computer Software - Restricted
 Rights clause in FAR 52.227-19.
  
 Gaussian, Inc.
 340 Quinnipiac St., Bldg. 40, Wallingford CT 06492
  
  
 ---------------------------------------------------------------
 Warning -- This program may not be used in any manner that
 competes with the business of Gaussian, Inc. or will provide
 assistance to any competitor of Gaussian, Inc.  The licensee
 of this program is prohibited from giving any competitor of
 Gaussian, Inc. access to this program.  By using this program,
 the user acknowledges that Gaussian, Inc. is engaged in the
 business of creating and licensing software in the field of
 computational chemistry and represents and warrants to the
 licensee that it is not a competitor of Gaussian, Inc. and that
 it will not use this program in any manner prohibited above.
 ---------------------------------------------------------------
  

 Cite this work as:
 Gaussian 09, Revision D.01,
 M. J. Frisch, G. W. Trucks, H. B. Schlegel, G. E. Scuseria, 
 M. A. Robb, J. R. Cheeseman, G. Scalmani, V. Barone, B. Mennucci, 
 G. A. Petersson, H. Nakatsuji, M. Caricato, X. Li, H. P. Hratchian, 
 A. F. Izmaylov, J. Bloino, G. Zheng, J. L. Sonnenberg, M. Hada, 
 M. Ehara, K. Toyota, R. Fukuda, J. Hasegawa, M. Ishida, T. Nakajima, 
 Y. Honda, O. Kitao, H. Nakai, T. Vreven, J. A. Montgomery, Jr., 
 J. E. Peralta, F. Ogliaro, M. Bearpark, J. J. Heyd, E. Brothers, 
 K. N. Kudin, V. N. Staroverov, T. Keith, R. Kobayashi, J. Normand, 
 K. Raghavachari, A. Rendell, J. C. Burant, S. S. Iyengar, J. Tomasi, 
 M. Cossi, N. Rega, J. M. Millam, M. Klene, J. E. Knox, J. B. Cross, 
 V. Bakken, C. Adamo, J. Jaramillo, R. Gomperts, R. E. Stratmann, 
 O. Yazyev, A. J. Austin, R. Cammi, C. Pomelli, J. W. Ochterski, 
 R. L. Martin, K. Morokuma, V. G. Zakrzewski, G. A. Voth, 
 P. Salvador, J. J. Dannenberg, S. Dapprich, A. D. Daniels, 
 O. Farkas, J. B. Foresman, J. V. Ortiz, J. Cioslowski, 
 and D. J. Fox, Gaussian, Inc., Wallingford CT, 2013.
 
 ******************************************
 Gaussian 09:  IA32W-G09RevD.01 24-Apr-2013
                08-Feb-2024 
 ******************************************
 %nprocshared=8
 Will use up to    8 processors via shared memory.
 %chk=D:\backups\Depo1\ChemChem\3\out\MATrp\MATrp_D10\MATrp_D10.chk
 ---------------------------------------------------------------
 #p opt=tight freq b3lyp/6-31g(d,p) guess=save geom=connectivity
 ---------------------------------------------------------------
 1/7=10,14=-1,18=20,19=15,26=3,38=1,57=2/1,3;
 2/9=110,12=2,17=6,18=5,40=1/2;
 3/5=1,6=6,7=101,11=2,16=1,25=1,30=1,71=1,74=-5/1,2,3;
 4//1;
 5/5=2,38=5/2;
 6/7=2,8=2,9=2,10=2,28=1/1;
 7//1,2,3,16;
 1/7=10,14=-1,18=20,19=15,26=3/3(2);
 2/9=110/2;
 99//99;
 2/9=110/2;
 3/5=1,6=6,7=101,11=2,16=1,25=1,30=1,71=1,74=-5/1,2,3;
 4/5=5,16=3,69=1/1;
 5/5=2,38=5/2;
 7//1,2,3,16;
 1/7=10,14=-1,18=20,19=15,26=3/3(-5);
 2/9=110/2;
 6/7=2,8=2,9=2,10=2,19=2,28=1/1;
 99/9=1/99;
 Leave Link    1 at Thu Feb 08 15:15:53 2024, MaxMem=           0 cpu:         0.0
 (Enter C:\G09W\l101.exe)
 --------------------------------
 MATrp OptFreq tight B3LYP/6-31Gd
 --------------------------------
 Symbolic Z-matrix:
 Charge =  0 Multiplicity = 1
 N                     1.7148   -0.11311  -0.48882 
 C                     0.93125   1.03662  -1.00015 
 H                     1.58862   1.7309   -1.4805 
 C                     0.21704   1.73334   0.17291 
 O                    -0.01755   2.96865   0.12241 
 C                    -0.11476   0.53511  -2.01305 
 H                    -0.6804    1.36502  -2.38211 
 H                     0.38148   0.05103  -2.8281 
 C                    -1.06089  -0.46413  -1.32171 
 C                    -0.89128  -1.80852  -1.23926 
 H                    -0.07489  -2.37018  -1.64292 
 C                    -2.2572   -0.1549   -0.6606 
 N                    -2.03723  -2.35079  -0.49239 
 H                    -2.19926  -3.3115   -0.26704 
 C                    -2.82039  -1.31657  -0.17228 
 C                    -2.85885   1.08605  -0.47514 
 H                    -2.41243   1.9797   -0.85854 
 C                    -4.02033  -1.31133   0.53214 
 H                    -4.44635  -2.21909   0.90547 
 C                    -4.07722   1.12663   0.23532 
 H                    -4.56776   2.06378   0.39663 
 C                    -4.65642  -0.06886   0.73763 
 H                    -5.58069  -0.02703   1.2751 
 O                    -0.17958   0.97653   1.31958 
 H                     1.40734  -0.6051    0.32568 
 C                    -1.34626   1.56596   1.89951 
 H                    -1.64303   0.99968   2.7575 
 H                    -1.1292    2.57161   2.19353 
 H                    -2.13953   1.56763   1.18143 
 C                     2.4286   -1.16049  -0.02301 
 C                     1.95512  -1.91816   1.23133 
 C                     2.67152  -2.96927   1.69876 
 C                     0.66754  -1.48137   1.95449 
 O                     3.48073  -1.51741  -0.61394 
 H                     2.34254  -3.4957    2.57028 
 H                     3.56613  -3.27275   1.1963 
 H                     0.75001  -1.70705   2.99717 
 H                     0.52689  -0.42828   1.82754 
 H                    -0.16889  -2.00531   1.54124 
 
 NAtoms=     39 NQM=       39 NQMF=       0 NMMI=      0 NMMIF=      0
                NMic=       0 NMicF=      0.
                    Isotopes and Nuclear Properties:
 (Nuclear quadrupole moments (NQMom) in fm**2, nuclear magnetic moments (NMagM)
  in nuclear magnetons)

  Atom         1           2           3           4           5           6           7           8           9          10
 IAtWgt=          14          12           1          12          16          12           1           1          12          12
 AtmWgt=  14.0030740  12.0000000   1.0078250  12.0000000  15.9949146  12.0000000   1.0078250   1.0078250  12.0000000  12.0000000
 NucSpn=           2           0           1           0           0           0           1           1           0           0
 AtZEff=   0.0000000   0.0000000   0.0000000   0.0000000   0.0000000   0.0000000   0.0000000   0.0000000   0.0000000   0.0000000
 NQMom=    2.0440000   0.0000000   0.0000000   0.0000000   0.0000000   0.0000000   0.0000000   0.0000000   0.0000000   0.0000000
 NMagM=    0.4037610   0.0000000   2.7928460   0.0000000   0.0000000   0.0000000   2.7928460   2.7928460   0.0000000   0.0000000
 AtZNuc=   7.0000000   6.0000000   1.0000000   6.0000000   8.0000000   6.0000000   1.0000000   1.0000000   6.0000000   6.0000000

  Atom        11          12          13          14          15          16          17          18          19          20
 IAtWgt=           1          12          14           1          12          12           1          12           1          12
 AtmWgt=   1.0078250  12.0000000  14.0030740   1.0078250  12.0000000  12.0000000   1.0078250  12.0000000   1.0078250  12.0000000
 NucSpn=           1           0           2           1           0           0           1           0           1           0
 AtZEff=   0.0000000   0.0000000   0.0000000   0.0000000   0.0000000   0.0000000   0.0000000   0.0000000   0.0000000   0.0000000
 NQMom=    0.0000000   0.0000000   2.0440000   0.0000000   0.0000000   0.0000000   0.0000000   0.0000000   0.0000000   0.0000000
 NMagM=    2.7928460   0.0000000   0.4037610   2.7928460   0.0000000   0.0000000   2.7928460   0.0000000   2.7928460   0.0000000
 AtZNuc=   1.0000000   6.0000000   7.0000000   1.0000000   6.0000000   6.0000000   1.0000000   6.0000000   1.0000000   6.0000000

  Atom        21          22          23          24          25          26          27          28          29          30
 IAtWgt=           1          12           1          16           1          12           1           1           1          12
 AtmWgt=   1.0078250  12.0000000   1.0078250  15.9949146   1.0078250  12.0000000   1.0078250   1.0078250   1.0078250  12.0000000
 NucSpn=           1           0           1           0           1           0           1           1           1           0
 AtZEff=   0.0000000   0.0000000   0.0000000   0.0000000   0.0000000   0.0000000   0.0000000   0.0000000   0.0000000   0.0000000
 NQMom=    0.0000000   0.0000000   0.0000000   0.0000000   0.0000000   0.0000000   0.0000000   0.0000000   0.0000000   0.0000000
 NMagM=    2.7928460   0.0000000   2.7928460   0.0000000   2.7928460   0.0000000   2.7928460   2.7928460   2.7928460   0.0000000
 AtZNuc=   1.0000000   6.0000000   1.0000000   8.0000000   1.0000000   6.0000000   1.0000000   1.0000000   1.0000000   6.0000000

  Atom        31          32          33          34          35          36          37          38          39
 IAtWgt=          12          12          12          16           1           1           1           1           1
 AtmWgt=  12.0000000  12.0000000  12.0000000  15.9949146   1.0078250   1.0078250   1.0078250   1.0078250   1.0078250
 NucSpn=           0           0           0           0           1           1           1           1           1
 AtZEff=   0.0000000   0.0000000   0.0000000   0.0000000   0.0000000   0.0000000   0.0000000   0.0000000   0.0000000
 NQMom=    0.0000000   0.0000000   0.0000000   0.0000000   0.0000000   0.0000000   0.0000000   0.0000000   0.0000000
 NMagM=    0.0000000   0.0000000   0.0000000   0.0000000   2.7928460   2.7928460   2.7928460   2.7928460   2.7928460
 AtZNuc=   6.0000000   6.0000000   6.0000000   8.0000000   1.0000000   1.0000000   1.0000000   1.0000000   1.0000000
 Leave Link  101 at Thu Feb 08 15:15:53 2024, MaxMem=    33554432 cpu:         0.0
 (Enter C:\G09W\l103.exe)

 GradGradGradGradGradGradGradGradGradGradGradGradGradGradGradGradGradGrad
 Berny optimization.
 Initialization pass.
                           ----------------------------
                           !    Initial Parameters    !
                           ! (Angstroms and Degrees)  !
 --------------------------                            --------------------------
 ! Name  Definition              Value          Derivative Info.                !
 --------------------------------------------------------------------------------
 ! R1    R(1,2)                  1.4823         estimate D2E/DX2                !
 ! R2    R(1,25)                 1.0            estimate D2E/DX2                !
 ! R3    R(1,30)                 1.3504         estimate D2E/DX2                !
 ! R4    R(2,3)                  1.07           estimate D2E/DX2                !
 ! R5    R(2,4)                  1.54           estimate D2E/DX2                !
 ! R6    R(2,6)                  1.54           estimate D2E/DX2                !
 ! R7    R(4,5)                  1.2584         estimate D2E/DX2                !
 ! R8    R(4,24)                 1.43           estimate D2E/DX2                !
 ! R9    R(6,7)                  1.07           estimate D2E/DX2                !
 ! R10   R(6,8)                  1.07           estimate D2E/DX2                !
 ! R11   R(6,9)                  1.54           estimate D2E/DX2                !
 ! R12   R(9,10)                 1.3575         estimate D2E/DX2                !
 ! R13   R(9,12)                 1.4014         estimate D2E/DX2                !
 ! R14   R(10,11)                1.07           estimate D2E/DX2                !
 ! R15   R(10,13)                1.4714         estimate D2E/DX2                !
 ! R16   R(12,15)                1.3803         estimate D2E/DX2                !
 ! R17   R(12,16)                1.3915         estimate D2E/DX2                !
 ! R18   R(13,14)                1.0            estimate D2E/DX2                !
 ! R19   R(13,15)                1.3362         estimate D2E/DX2                !
 ! R20   R(15,18)                1.3914         estimate D2E/DX2                !
 ! R21   R(16,17)                1.07           estimate D2E/DX2                !
 ! R22   R(16,20)                1.411          estimate D2E/DX2                !
 ! R23   R(18,19)                1.07           estimate D2E/DX2                !
 ! R24   R(18,22)                1.4109         estimate D2E/DX2                !
 ! R25   R(20,21)                1.07           estimate D2E/DX2                !
 ! R26   R(20,22)                1.4202         estimate D2E/DX2                !
 ! R27   R(22,23)                1.07           estimate D2E/DX2                !
 ! R28   R(24,26)                1.43           estimate D2E/DX2                !
 ! R29   R(26,27)                1.07           estimate D2E/DX2                !
 ! R30   R(26,28)                1.07           estimate D2E/DX2                !
 ! R31   R(26,29)                1.07           estimate D2E/DX2                !
 ! R32   R(30,31)                1.54           estimate D2E/DX2                !
 ! R33   R(30,34)                1.2584         estimate D2E/DX2                !
 ! R34   R(31,32)                1.3552         estimate D2E/DX2                !
 ! R35   R(31,33)                1.54           estimate D2E/DX2                !
 ! R36   R(32,35)                1.07           estimate D2E/DX2                !
 ! R37   R(32,36)                1.07           estimate D2E/DX2                !
 ! R38   R(33,37)                1.07           estimate D2E/DX2                !
 ! R39   R(33,38)                1.07           estimate D2E/DX2                !
 ! R40   R(33,39)                1.07           estimate D2E/DX2                !
 ! A1    A(2,1,25)             120.003          estimate D2E/DX2                !
 ! A2    A(25,1,30)             59.997          estimate D2E/DX2                !
 ! A3    A(1,2,3)              109.4739         estimate D2E/DX2                !
 ! A4    A(1,2,4)              109.4686         estimate D2E/DX2                !
 ! A5    A(1,2,6)              109.4712         estimate D2E/DX2                !
 ! A6    A(3,2,4)              109.4712         estimate D2E/DX2                !
 ! A7    A(3,2,6)              109.4712         estimate D2E/DX2                !
 ! A8    A(4,2,6)              109.4712         estimate D2E/DX2                !
 ! A9    A(2,4,5)              120.0            estimate D2E/DX2                !
 ! A10   A(2,4,24)             120.0            estimate D2E/DX2                !
 ! A11   A(5,4,24)             120.0            estimate D2E/DX2                !
 ! A12   A(2,6,7)              109.4712         estimate D2E/DX2                !
 ! A13   A(2,6,8)              109.4712         estimate D2E/DX2                !
 ! A14   A(2,6,9)              109.4712         estimate D2E/DX2                !
 ! A15   A(7,6,8)              109.4712         estimate D2E/DX2                !
 ! A16   A(7,6,9)              109.4712         estimate D2E/DX2                !
 ! A17   A(8,6,9)              109.4712         estimate D2E/DX2                !
 ! A18   A(6,9,10)             126.3754         estimate D2E/DX2                !
 ! A19   A(6,9,12)             126.3754         estimate D2E/DX2                !
 ! A20   A(10,9,12)            107.2492         estimate D2E/DX2                !
 ! A21   A(9,10,11)            126.3167         estimate D2E/DX2                !
 ! A22   A(9,10,13)            107.3666         estimate D2E/DX2                !
 ! A23   A(11,10,13)           126.3167         estimate D2E/DX2                !
 ! A24   A(9,12,15)            109.239          estimate D2E/DX2                !
 ! A25   A(9,12,16)            128.9585         estimate D2E/DX2                !
 ! A26   A(15,12,16)           121.8024         estimate D2E/DX2                !
 ! A27   A(10,13,14)           126.4864         estimate D2E/DX2                !
 ! A28   A(10,13,15)           107.0272         estimate D2E/DX2                !
 ! A29   A(14,13,15)           126.4864         estimate D2E/DX2                !
 ! A30   A(12,15,13)           109.118          estimate D2E/DX2                !
 ! A31   A(12,15,18)           121.8576         estimate D2E/DX2                !
 ! A32   A(13,15,18)           129.0244         estimate D2E/DX2                !
 ! A33   A(12,16,17)           121.1091         estimate D2E/DX2                !
 ! A34   A(12,16,20)           117.7818         estimate D2E/DX2                !
 ! A35   A(17,16,20)           121.1091         estimate D2E/DX2                !
 ! A36   A(15,18,19)           121.1173         estimate D2E/DX2                !
 ! A37   A(15,18,22)           117.7654         estimate D2E/DX2                !
 ! A38   A(19,18,22)           121.1173         estimate D2E/DX2                !
 ! A39   A(16,20,21)           119.7998         estimate D2E/DX2                !
 ! A40   A(16,20,22)           120.4005         estimate D2E/DX2                !
 ! A41   A(21,20,22)           119.7998         estimate D2E/DX2                !
 ! A42   A(18,22,20)           120.3923         estimate D2E/DX2                !
 ! A43   A(18,22,23)           119.8039         estimate D2E/DX2                !
 ! A44   A(20,22,23)           119.8039         estimate D2E/DX2                !
 ! A45   A(4,24,26)            109.4712         estimate D2E/DX2                !
 ! A46   A(24,26,27)           109.4712         estimate D2E/DX2                !
 ! A47   A(24,26,28)           109.4712         estimate D2E/DX2                !
 ! A48   A(24,26,29)           109.4712         estimate D2E/DX2                !
 ! A49   A(27,26,28)           109.4712         estimate D2E/DX2                !
 ! A50   A(27,26,29)           109.4712         estimate D2E/DX2                !
 ! A51   A(28,26,29)           109.4712         estimate D2E/DX2                !
 ! A52   A(1,30,31)            120.003          estimate D2E/DX2                !
 ! A53   A(1,30,34)            119.997          estimate D2E/DX2                !
 ! A54   A(31,30,34)           120.0            estimate D2E/DX2                !
 ! A55   A(30,31,32)           120.0            estimate D2E/DX2                !
 ! A56   A(30,31,33)           120.0            estimate D2E/DX2                !
 ! A57   A(32,31,33)           120.0            estimate D2E/DX2                !
 ! A58   A(31,32,35)           120.0            estimate D2E/DX2                !
 ! A59   A(31,32,36)           120.0            estimate D2E/DX2                !
 ! A60   A(35,32,36)           120.0            estimate D2E/DX2                !
 ! A61   A(31,33,37)           109.4712         estimate D2E/DX2                !
 ! A62   A(31,33,38)           109.4712         estimate D2E/DX2                !
 ! A63   A(31,33,39)           109.4712         estimate D2E/DX2                !
 ! A64   A(37,33,38)           109.4712         estimate D2E/DX2                !
 ! A65   A(37,33,39)           109.4712         estimate D2E/DX2                !
 ! A66   A(38,33,39)           109.4712         estimate D2E/DX2                !
 ! A67   L(2,1,30,25,-1)       180.0            estimate D2E/DX2                !
 ! A68   L(2,1,30,25,-2)       180.0            estimate D2E/DX2                !
 ! D1    D(25,1,2,3)           149.9995         estimate D2E/DX2                !
 ! D2    D(25,1,2,4)            29.9995         estimate D2E/DX2                !
 ! D3    D(25,1,2,6)           -89.9989         estimate D2E/DX2                !
 ! D4    D(3,2,30,31)          149.9995         estimate D2E/DX2                !
 ! D5    D(3,2,30,34)          -30.0004         estimate D2E/DX2                !
 ! D6    D(4,2,30,31)           29.9995         estimate D2E/DX2                !
 ! D7    D(4,2,30,34)         -150.0004         estimate D2E/DX2                !
 ! D8    D(6,2,30,31)          -89.9988         estimate D2E/DX2                !
 ! D9    D(6,2,30,34)           90.0013         estimate D2E/DX2                !
 ! D10   D(25,1,30,31)           0.0            estimate D2E/DX2                !
 ! D11   D(25,1,30,34)        -179.9999         estimate D2E/DX2                !
 ! D12   D(1,2,4,5)            150.0016         estimate D2E/DX2                !
 ! D13   D(1,2,4,24)           -29.9984         estimate D2E/DX2                !
 ! D14   D(3,2,4,5)             30.0            estimate D2E/DX2                !
 ! D15   D(3,2,4,24)          -150.0            estimate D2E/DX2                !
 ! D16   D(6,2,4,5)            -90.0            estimate D2E/DX2                !
 ! D17   D(6,2,4,24)            90.0            estimate D2E/DX2                !
 ! D18   D(1,2,6,7)            179.9968         estimate D2E/DX2                !
 ! D19   D(1,2,6,8)            -60.0032         estimate D2E/DX2                !
 ! D20   D(1,2,6,9)             59.9968         estimate D2E/DX2                !
 ! D21   D(3,2,6,7)            -60.0            estimate D2E/DX2                !
 ! D22   D(3,2,6,8)             60.0            estimate D2E/DX2                !
 ! D23   D(3,2,6,9)            180.0            estimate D2E/DX2                !
 ! D24   D(4,2,6,7)             60.0            estimate D2E/DX2                !
 ! D25   D(4,2,6,8)           -180.0            estimate D2E/DX2                !
 ! D26   D(4,2,6,9)            -60.0            estimate D2E/DX2                !
 ! D27   D(2,4,24,26)         -150.0            estimate D2E/DX2                !
 ! D28   D(5,4,24,26)           30.0            estimate D2E/DX2                !
 ! D29   D(2,6,9,10)           -90.0            estimate D2E/DX2                !
 ! D30   D(2,6,9,12)            90.0            estimate D2E/DX2                !
 ! D31   D(7,6,9,10)           150.0            estimate D2E/DX2                !
 ! D32   D(7,6,9,12)           -30.0            estimate D2E/DX2                !
 ! D33   D(8,6,9,10)            30.0            estimate D2E/DX2                !
 ! D34   D(8,6,9,12)          -150.0            estimate D2E/DX2                !
 ! D35   D(6,9,10,11)           -0.0002         estimate D2E/DX2                !
 ! D36   D(6,9,10,13)          180.0            estimate D2E/DX2                !
 ! D37   D(12,9,10,11)         179.9998         estimate D2E/DX2                !
 ! D38   D(12,9,10,13)           0.0            estimate D2E/DX2                !
 ! D39   D(6,9,12,15)         -180.0            estimate D2E/DX2                !
 ! D40   D(6,9,12,16)           -0.0002         estimate D2E/DX2                !
 ! D41   D(10,9,12,15)           0.0            estimate D2E/DX2                !
 ! D42   D(10,9,12,16)         179.9998         estimate D2E/DX2                !
 ! D43   D(9,10,13,14)        -179.9999         estimate D2E/DX2                !
 ! D44   D(9,10,13,15)           0.0            estimate D2E/DX2                !
 ! D45   D(11,10,13,14)          0.0003         estimate D2E/DX2                !
 ! D46   D(11,10,13,15)       -179.9998         estimate D2E/DX2                !
 ! D47   D(9,12,15,13)           0.0            estimate D2E/DX2                !
 ! D48   D(9,12,15,18)         179.9998         estimate D2E/DX2                !
 ! D49   D(16,12,15,13)       -179.9998         estimate D2E/DX2                !
 ! D50   D(16,12,15,18)          0.0            estimate D2E/DX2                !
 ! D51   D(9,12,16,17)           0.0003         estimate D2E/DX2                !
 ! D52   D(9,12,16,20)        -179.9997         estimate D2E/DX2                !
 ! D53   D(15,12,16,17)        180.0            estimate D2E/DX2                !
 ! D54   D(15,12,16,20)          0.0            estimate D2E/DX2                !
 ! D55   D(10,13,15,12)          0.0            estimate D2E/DX2                !
 ! D56   D(10,13,15,18)       -179.9998         estimate D2E/DX2                !
 ! D57   D(14,13,15,12)        179.9999         estimate D2E/DX2                !
 ! D58   D(14,13,15,18)          0.0002         estimate D2E/DX2                !
 ! D59   D(12,15,18,19)       -179.9998         estimate D2E/DX2                !
 ! D60   D(12,15,18,22)          0.0            estimate D2E/DX2                !
 ! D61   D(13,15,18,19)         -0.0001         estimate D2E/DX2                !
 ! D62   D(13,15,18,22)        179.9997         estimate D2E/DX2                !
 ! D63   D(12,16,20,21)       -179.9999         estimate D2E/DX2                !
 ! D64   D(12,16,20,22)          0.0            estimate D2E/DX2                !
 ! D65   D(17,16,20,21)          0.0001         estimate D2E/DX2                !
 ! D66   D(17,16,20,22)       -180.0            estimate D2E/DX2                !
 ! D67   D(15,18,22,20)          0.0            estimate D2E/DX2                !
 ! D68   D(15,18,22,23)       -179.9999         estimate D2E/DX2                !
 ! D69   D(19,18,22,20)        179.9999         estimate D2E/DX2                !
 ! D70   D(19,18,22,23)         -0.0001         estimate D2E/DX2                !
 ! D71   D(16,20,22,18)         -0.0001         estimate D2E/DX2                !
 ! D72   D(16,20,22,23)        179.9999         estimate D2E/DX2                !
 ! D73   D(21,20,22,18)        179.9999         estimate D2E/DX2                !
 ! D74   D(21,20,22,23)         -0.0002         estimate D2E/DX2                !
 ! D75   D(4,24,26,27)         180.0            estimate D2E/DX2                !
 ! D76   D(4,24,26,28)         -60.0            estimate D2E/DX2                !
 ! D77   D(4,24,26,29)          60.0            estimate D2E/DX2                !
 ! D78   D(1,30,31,32)        -179.9998         estimate D2E/DX2                !
 ! D79   D(1,30,31,33)           0.0002         estimate D2E/DX2                !
 ! D80   D(34,30,31,32)          0.0001         estimate D2E/DX2                !
 ! D81   D(34,30,31,33)       -179.9999         estimate D2E/DX2                !
 ! D82   D(30,31,32,35)        179.9999         estimate D2E/DX2                !
 ! D83   D(30,31,32,36)         -0.0001         estimate D2E/DX2                !
 ! D84   D(33,31,32,35)         -0.0001         estimate D2E/DX2                !
 ! D85   D(33,31,32,36)        179.9999         estimate D2E/DX2                !
 ! D86   D(30,31,33,37)       -150.0            estimate D2E/DX2                !
 ! D87   D(30,31,33,38)        -30.0            estimate D2E/DX2                !
 ! D88   D(30,31,33,39)         90.0            estimate D2E/DX2                !
 ! D89   D(32,31,33,37)         30.0            estimate D2E/DX2                !
 ! D90   D(32,31,33,38)        150.0            estimate D2E/DX2                !
 ! D91   D(32,31,33,39)        -90.0            estimate D2E/DX2                !
 --------------------------------------------------------------------------------
 Trust Radius=3.00D-01 FncErr=1.00D-07 GrdErr=1.00D-06
 Number of steps in this run=    209 maximum allowed number of steps=    234.
 GradGradGradGradGradGradGradGradGradGradGradGradGradGradGradGradGradGrad

 Leave Link  103 at Thu Feb 08 15:15:53 2024, MaxMem=    33554432 cpu:         0.0
 (Enter C:\G09W\l202.exe)
                          Input orientation:                          
 ---------------------------------------------------------------------
 Center     Atomic      Atomic             Coordinates (Angstroms)
 Number     Number       Type             X           Y           Z
 ---------------------------------------------------------------------
      1          7           0        1.714797   -0.113107   -0.488823
      2          6           0        0.931248    1.036619   -1.000155
      3          1           0        1.588623    1.730898   -1.480503
      4          6           0        0.217039    1.733338    0.172913
      5          8           0       -0.017547    2.968647    0.122413
      6          6           0       -0.114761    0.535109   -2.013048
      7          1           0       -0.680396    1.365021   -2.382106
      8          1           0        0.381475    0.051025   -2.828101
      9          6           0       -1.060889   -0.464134   -1.321706
     10          6           0       -0.891278   -1.808516   -1.239259
     11          1           0       -0.074889   -2.370183   -1.642916
     12          6           0       -2.257202   -0.154904   -0.660597
     13          7           0       -2.037232   -2.350787   -0.492394
     14          1           0       -2.199261   -3.311495   -0.267036
     15          6           0       -2.820391   -1.316574   -0.172280
     16          6           0       -2.858855    1.086051   -0.475145
     17          1           0       -2.412430    1.979702   -0.858540
     18          6           0       -4.020329   -1.311328    0.532144
     19          1           0       -4.446353   -2.219091    0.905466
     20          6           0       -4.077216    1.126632    0.235318
     21          1           0       -4.567756    2.063782    0.396628
     22          6           0       -4.656417   -0.068860    0.737627
     23          1           0       -5.580685   -0.027025    1.275101
     24          8           0       -0.179580    0.976530    1.319576
     25          1           0        1.407341   -0.605097    0.325681
     26          6           0       -1.346264    1.565959    1.899510
     27          1           0       -1.643034    0.999676    2.757502
     28          1           0       -1.129204    2.571611    2.193530
     29          1           0       -2.139525    1.567630    1.181434
     30          6           0        2.428599   -1.160493   -0.023006
     31          6           0        1.955117   -1.918158    1.231330
     32          6           0        2.671519   -2.969274    1.698760
     33          6           0        0.667540   -1.481375    1.954494
     34          8           0        3.480732   -1.517409   -0.613936
     35          1           0        2.342542   -3.495702    2.570280
     36          1           0        3.566133   -3.272755    1.196300
     37          1           0        0.750009   -1.707054    2.997168
     38          1           0        0.526885   -0.428285    1.827538
     39          1           0       -0.168888   -2.005306    1.541235
 ---------------------------------------------------------------------
                    Distance matrix (angstroms):
                    1          2          3          4          5
     1  N    0.000000
     2  C    1.482322   0.000000
     3  H    2.097548   1.070000   0.000000
     4  C    2.467900   1.540000   2.148263   0.000000
     5  O    3.587734   2.427572   2.584792   1.258400   0.000000
     6  C    2.467940   1.540000   2.148263   2.514809   3.239097
     7  H    3.392098   2.148263   2.468846   2.732978   3.046901
     8  H    2.697575   2.148263   2.468846   3.444314   4.168606
     9  C    2.919134   2.514809   3.444314   2.948875   3.867561
    10  C    3.198310   3.387265   4.328459   3.970809   5.043693
    11  H    3.103111   3.609952   4.428602   4.496814   5.623414
    12  C    3.975931   3.420707   4.361062   3.222121   3.922464
    13  N    4.368632   4.532573   5.548274   4.712159   5.723067
    14  H    5.059518   5.407740   6.422328   5.610918   6.659709
    15  C    4.702814   4.505296   5.517059   4.318229   5.128927
    16  C    4.728261   3.826612   4.605066   3.209374   3.460386
    17  H    4.642256   3.477016   4.056743   2.835259   2.770513
    18  C    5.947249   5.690247   6.690757   5.230136   5.874379
    19  H    6.658752   6.568839   7.597118   6.156749   6.865867
    20  C    5.967307   5.159381   5.950707   4.337351   4.459448
    21  H    6.707708   5.765858   6.444799   4.801407   4.647405
    22  C    6.488335   5.955163   6.867296   5.226604   5.578893
    23  H    7.506190   6.979499   7.879253   6.158514   6.422713
    24  O    2.836596   2.572683   3.396477   1.430000   2.329803
    25  H    1.000000   2.163270   2.958385   2.628390   3.852697
    26  C    4.230069   3.724958   4.479425   2.335180   2.625089
    27  H    4.801244   4.555028   5.379497   3.267757   3.669162
    28  H    4.742475   4.098938   4.646709   2.568651   2.383892
    29  H    4.524426   3.804070   4.583847   2.568651   2.754480
    30  C    1.350376   2.832699   3.345146   3.647415   4.801518
    31  C    2.504973   3.841684   4.561137   4.180261   5.385347
    32  C    3.722704   5.134185   5.776850   5.519713   6.706329
    33  C    2.989766   3.890988   4.792316   3.702885   4.860922
    34  O    2.259700   3.629338   3.857786   4.673134   5.736277
    35  H    4.603707   5.939839   6.655418   6.132535   7.304101
    36  H    4.031186   5.507970   6.009356   6.109395   7.276750
    37  H    3.952671   4.851719   5.707217   4.482941   5.542159
    38  H    2.622213   3.210187   4.090537   2.739781   3.839662
    39  H    3.354075   4.113669   5.116539   3.999838   5.174569
                    6          7          8          9         10
     6  C    0.000000
     7  H    1.070000   0.000000
     8  H    1.070000   1.747303   0.000000
     9  C    1.540000   2.148263   2.148263   0.000000
    10  C    2.587336   3.379632   2.757212   1.357545   0.000000
    11  H    2.929046   3.855488   2.734078   2.169884   1.070000
    12  C    2.625889   2.785692   3.420979   1.401375   2.221493
    13  N    3.786381   4.383976   4.132115   2.280452   1.471420
    14  H    4.710633   5.352595   4.952353   3.242790   2.216976
    15  C    3.759999   4.080915   4.379003   2.267968   2.258745
    16  C    3.193545   2.908610   4.136112   2.520401   3.582422
    17  H    2.949410   2.387264   3.924904   2.830816   4.099933
    18  C    5.014060   5.177920   5.702906   3.593436   3.629879
    19  H    5.904747   6.151132   6.511596   4.416054   4.172167
    20  C    4.594138   4.294896   5.515560   3.748745   4.575989
    21  H    5.288908   4.829203   6.240590   4.652005   5.584560
    22  C    5.343934   5.253332   6.173261   4.162320   4.594644
    23  H    6.403455   6.271028   7.238074   5.230968   5.611262
    24  O    3.362355   3.755555   4.286557   3.135057   3.848458
    25  H    3.014385   3.946153   3.380716   2.970844   3.030000
    26  C    4.229345   4.337740   5.256464   3.818238   4.630978
    27  H    5.030864   5.241729   6.016440   4.372822   4.942184
    28  H    4.782440   4.753287   5.818272   4.645137   5.570114
    29  H    3.920520   3.856024   4.973118   3.399592   4.337769
    30  C    3.647467   4.648594   3.677915   3.787884   3.594550
    31  C    4.563869   5.548163   4.778390   4.210518   3.770648
    32  C    5.815632   6.831904   5.904150   5.415700   4.761600
    33  C    4.518804   5.359571   5.030239   3.841319   3.568892
    34  O    4.370116   5.361885   4.119212   4.715575   4.426086
    35  H    6.579717   7.569076   6.750377   5.993438   5.274161
    36  H    6.192635   7.235120   6.114357   5.969760   5.286251
    37  H    5.556742   6.357695   6.095935   4.845293   4.544384
    38  H    4.011227   4.732291   4.682506   3.527046   3.649859
    39  H    4.369161   5.197437   4.860298   3.371543   2.879534
                   11         12         13         14         15
    11  H    0.000000
    12  C    3.261120   0.000000
    13  N    2.274834   2.213274   0.000000
    14  H    2.700384   3.181559   1.000000   0.000000
    15  C    3.287955   1.380259   1.336191   2.091528   0.000000
    16  C    4.589086   1.391527   3.533725   4.451605   2.421944
    17  H    5.000085   2.149377   4.362106   5.328423   3.391581
    18  C    4.628019   2.422512   2.462280   2.820575   1.391435
    19  H    5.062290   3.392021   2.788408   2.759987   2.149378
    20  C    5.636853   2.399469   4.096772   4.845209   2.777589
    21  H    6.633675   3.373270   5.165494   5.911330   3.847564
    22  C    5.652740   2.778249   3.685142   4.190661   2.399106
    23  H    6.657252   3.848223   4.591292   4.959834   3.372991
    24  O    4.470773   3.085083   4.219614   4.998360   3.802347
    25  H    3.031156   3.821556   3.947374   4.547909   4.316003
    26  C    5.445952   3.216415   4.641070   5.404728   3.843743
    27  H    5.760097   3.659735   4.684316   5.295603   3.915968
    28  H    6.344386   4.105156   5.680555   6.466092   4.855425
    29  H    5.267452   2.524688   4.262177   5.089940   3.258029
    30  C    3.217905   4.834714   4.645511   5.109154   5.253431
    31  C    3.547751   4.942882   4.370039   4.630911   5.013731
    32  C    4.366746   6.146506   5.230298   5.263646   6.032684
    33  C    3.779225   4.141539   3.749524   4.062399   4.088519
    34  O    3.798481   5.897667   5.581865   5.966691   6.319774
    35  H    4.986160   6.538895   5.465640   5.358383   6.239079
    36  H    4.704554   6.861508   5.924476   5.948329   6.818162
    37  H    4.759262   4.983144   4.512222   4.682675   4.790159
    38  H    4.022084   3.743888   3.956362   4.486871   3.999073
    39  H    3.206367   3.554308   2.783112   3.016353   3.231246
                   16         17         18         19         20
    16  C    0.000000
    17  H    1.070000   0.000000
    18  C    2.847996   3.917936   0.000000
    19  H    3.917934   4.987828   1.070000   0.000000
    20  C    1.410961   2.166972   2.456622   3.432088   0.000000
    21  H    2.153205   2.495586   3.421902   4.314703   1.070000
    22  C    2.456800   3.432177   1.410872   2.166977   1.420207
    23  H    3.422084   4.314768   2.153168   2.495695   2.161595
    24  O    3.226690   3.276608   4.539350   5.346853   4.048421
    25  H    4.658511   4.761745   5.477315   6.099743   5.752166
    26  C    2.856086   2.985755   4.159218   4.992523   3.228102
    27  H    3.454806   3.824680   3.993055   4.652859   3.507531
    28  H    3.510044   3.363355   5.118206   5.967698   3.822739
    29  H    1.869119   2.098993   3.499629   4.442620   2.200968
    30  C    5.762687   5.830481   6.474536   7.017668   6.900964
    31  C    5.925508   6.215813   6.046739   6.416819   6.830214
    32  C    7.194203   7.541796   6.992182   7.201125   8.028919
    33  C    4.993023   5.420187   4.901848   5.272247   5.680667
    34  O    6.854752   6.857038   7.590907   8.101828   8.052004
    35  H    7.571103   8.021634   7.029339   7.105663   8.248110
    36  H    7.941875   8.219117   7.864013   8.086700   8.871239
    37  H    5.734308   6.201586   5.384149   5.624907   6.241770
    38  H    4.365638   4.653277   4.809882   5.365660   5.113774
    39  H    4.567077   5.164561   4.041468   4.329736   5.175856
                   21         22         23         24         25
    21  H    0.000000
    22  C    2.161551   0.000000
    23  H    2.483790   1.070000   0.000000
    24  O    4.614113   4.633958   5.493727   0.000000
    25  H    6.544443   6.101344   7.075879   2.451059   0.000000
    26  C    3.589498   3.870364   4.567035   1.430000   3.843534
    27  H    3.906411   3.781817   4.330903   2.051796   4.218274
    28  H    3.912849   4.640363   5.235657   2.051796   4.473745
    29  H    2.599691   3.034766   3.793848   2.051796   4.246565
    30  C    7.714987   7.208861   8.192586   3.629324   1.213679
    31  C    7.687681   6.883024   7.769595   3.597769   1.686531
    32  C    8.912592   7.939447   8.771270   4.882818   3.012113
    33  C    6.511790   5.640964   6.451126   2.676197   1.992034
    34  O    8.867036   8.374855   9.375446   4.832813   2.452375
    35  H    9.131530   8.005454   8.745670   5.284527   3.777357
    36  H    9.761058   8.836608   9.705939   5.665861   3.540446
    37  H    7.018592   6.084294   6.772422   3.298495   2.963652
    38  H    5.849211   5.308833   6.145617   1.652460   1.749869
    39  H    6.100626   4.953132   5.768185   2.990082   2.433650
                   26         27         28         29         30
    26  C    0.000000
    27  H    1.070000   0.000000
    28  H    1.070000   1.747303   0.000000
    29  H    1.070000   1.747303   1.747303   0.000000
    30  C    5.037777   5.382913   5.612450   5.455373   0.000000
    31  C    4.846096   4.877464   5.531446   5.377667   1.540000
    32  C    6.062278   5.957253   6.737336   6.633044   2.509019
    33  C    3.653036   3.484134   4.439834   4.215883   2.667358
    34  O    6.254954   6.629879   6.771519   6.657936   1.258400
    35  H    6.299018   6.010682   7.000518   6.903271   3.490808
    36  H    6.931038   6.915666   7.562888   7.482251   2.691159
    37  H    4.038790   3.620840   4.741756   4.729678   3.498263
    38  H    2.736946   2.759068   3.446151   3.392767   2.752664
    39  H    3.777367   3.561226   4.721850   4.096186   3.147618
                   31         32         33         34         35
    31  C    0.000000
    32  C    1.355200   0.000000
    33  C    1.540000   2.509019   0.000000
    34  O    2.427572   2.848034   3.809485   0.000000
    35  H    2.105120   1.070000   2.691159   3.917697   0.000000
    36  H    2.105120   1.070000   3.490808   2.522991   1.853294
    37  H    2.148263   2.640315   1.070000   4.531322   2.432624
    38  H    2.148263   3.327561   1.070000   3.983993   3.641061
    39  H    2.148263   3.003658   1.070000   4.266443   3.096369
                   36         37         38         39
    36  H    0.000000
    37  H    3.691219   0.000000
    38  H    4.210285   1.747303   0.000000
    39  H    3.959266   1.747303   1.747303   0.000000
 Stoichiometry    C16H18N2O3
 Framework group  C1[X(C16H18N2O3)]
 Deg. of freedom   111
 Full point group                 C1      NOp   1
 Largest Abelian subgroup         C1      NOp   1
 Largest concise Abelian subgroup C1      NOp   1
                         Standard orientation:                         
 ---------------------------------------------------------------------
 Center     Atomic      Atomic             Coordinates (Angstroms)
 Number     Number       Type             X           Y           Z
 ---------------------------------------------------------------------
      1          7           0        2.106647    0.847552   -0.562106
      2          6           0        1.018426    1.785518   -0.927172
      3          1           0        1.441360    2.693171   -1.304258
      4          6           0        0.167584    2.094435    0.318716
      5          8           0       -0.406215    3.209035    0.428226
      6          6           0        0.129948    1.144690   -2.009552
      7          1           0       -0.655607    1.821729   -2.273031
      8          1           0        0.721118    0.930052   -2.875202
      9          6           0       -0.478759   -0.161652   -1.466830
     10          6           0        0.064215   -1.402405   -1.559779
     11          1           0        0.994933   -1.653686   -2.024023
     12          6           0       -1.696286   -0.290870   -0.785081
     13          7           0       -0.863286   -2.337934   -0.904336
     14          1           0       -0.742681   -3.326059   -0.809140
     15          6           0       -1.897198   -1.617269   -0.460405
     16          6           0       -2.617708    0.694971   -0.445304
     17          1           0       -2.450712    1.720065   -0.702589
     18          6           0       -3.031582   -2.042078    0.224286
     19          1           0       -3.175298   -3.073526    0.469973
     20          6           0       -3.779549    0.297770    0.249798
     21          1           0       -4.509551    1.029299    0.527035
     22          6           0       -3.985945   -1.067109    0.583708
     23          1           0       -4.870482   -1.357735    1.110994
     24          8           0        0.029562    1.114696    1.351171
     25          1           0        1.971103    0.187695    0.176958
     26          6           0       -1.240449    1.270698    1.989634
     27          1           0       -1.343725    0.537606    2.762170
     28          1           0       -1.307511    2.249858    2.415835
     29          1           0       -2.020400    1.141357    1.268629
     30          6           0        3.098003   -0.006924   -0.229536
     31          6           0        2.889265   -1.023104    0.908623
     32          6           0        3.884205   -1.880600    1.242334
     33          6           0        1.549913   -1.064858    1.667566
     34          8           0        4.192443    0.027194   -0.849702
     35          1           0        3.739174   -2.586646    2.033134
     36          1           0        4.814793   -1.851590    0.715015
     37          1           0        1.719394   -1.391055    2.672440
     38          1           0        1.115502   -0.087070    1.678455
     39          1           0        0.884254   -1.745460    1.179120
 ---------------------------------------------------------------------
 Rotational constants (GHZ):      0.4999496      0.2628206      0.2273114
 Leave Link  202 at Thu Feb 08 15:15:54 2024, MaxMem=    33554432 cpu:         1.0
 (Enter C:\G09W\l301.exe)
 Standard basis: 6-31G(d,p) (6D, 7F)
 Ernie: Thresh=  0.10000D-02 Tol=  0.10000D-05 Strict=F.
 There are   405 symmetry adapted cartesian basis functions of A   symmetry.
 There are   405 symmetry adapted basis functions of A   symmetry.
   405 basis functions,   714 primitive gaussians,   405 cartesian basis functions
    76 alpha electrons       76 beta electrons
       nuclear repulsion energy      1765.8400144864 Hartrees.
 IExCor=  402 DFT=T Ex+Corr=B3LYP ExCW=0 ScaHFX=  0.200000
 ScaDFX=  0.800000  0.720000  1.000000  0.810000 ScalE2=  1.000000  1.000000
 IRadAn=      0 IRanWt=     -1 IRanGd=            0 ICorTp=0 IEmpDi=  4
 NAtoms=   39 NActive=   39 NUniq=   39 SFac= 1.00D+00 NAtFMM=   60 NAOKFM=F Big=F
 Integral buffers will be    262144 words long.
 Raffenetti 2 integral format.
 Two-electron integral symmetry is turned on.
 Leave Link  301 at Thu Feb 08 15:15:54 2024, MaxMem=    33554432 cpu:         0.0
 (Enter C:\G09W\l302.exe)
 NPDir=0 NMtPBC=     1 NCelOv=     1 NCel=       1 NClECP=     1 NCelD=      1
         NCelK=      1 NCelE2=     1 NClLst=     1 CellRange=     0.0.
 One-electron integrals computed using PRISM.
 NBasis=   405 RedAO= T EigKep=  3.41D-04  NBF=   405
 NBsUse=   405 1.00D-06 EigRej= -1.00D+00 NBFU=   405
 Precomputing XC quadrature grid using
 IXCGrd= 4 IRadAn=           0 IRanWt=          -1 IRanGd=           0 AccXCQ= 0.00D+00.
 Generated NRdTot=       0 NPtTot=           0 NUsed=           0 NTot=          16
 NSgBfM=   400   400   401   402   403 MxSgAt=    39 MxSgA2=    39.
 Leave Link  302 at Thu Feb 08 15:15:55 2024, MaxMem=    33554432 cpu:         1.0
 (Enter C:\G09W\l303.exe)
 DipDrv:  MaxL=1.
 Leave Link  303 at Thu Feb 08 15:15:55 2024, MaxMem=    33554432 cpu:         0.0
 (Enter C:\G09W\l401.exe)
 ExpMin= 1.61D-01 ExpMax= 5.48D+03 ExpMxC= 8.25D+02 IAcc=1 IRadAn=         1 AccDes= 0.00D+00
 Harris functional with IExCor=  402 and IRadAn=       1 diagonalized for initial guess.
 HarFok:  IExCor=  402 AccDes= 0.00D+00 IRadAn=         1 IDoV= 1 UseB2=F ITyADJ=14
 ICtDFT=  3500011 ScaDFX=  1.000000  1.000000  1.000000  1.000000
 FoFCou: FMM=F IPFlag=           0 FMFlag=      100000 FMFlg1=           0
         NFxFlg=           0 DoJE=T BraDBF=F KetDBF=T FulRan=T
         wScrn=  0.000000 ICntrl=     500 IOpCl=  0 I1Cent=   200000004 NGrid=           0
         NMat0=    1 NMatS0=      1 NMatT0=    0 NMatD0=    1 NMtDS0=    0 NMtDT0=    0
 Petite list used in FoFCou.
 Harris En= -955.583307857912    
 JPrj=0 DoOrth=F DoCkMO=F.
 Leave Link  401 at Thu Feb 08 15:15:57 2024, MaxMem=    33554432 cpu:         2.0
 (Enter C:\G09W\l502.exe)
 Closed shell SCF:
 Using DIIS extrapolation, IDIIS=  1040.
 Integral symmetry usage will be decided dynamically.
 IVT=      516292 IEndB=      516292 NGot=    33554432 MDV=    33219211
 LenX=    33219211 LenY=    33054745
 Requested convergence on RMS density matrix=1.00D-08 within 128 cycles.
 Requested convergence on MAX density matrix=1.00D-06.
 Requested convergence on             energy=1.00D-06.
 No special actions if energy rises.
 Fock matrices will be formed incrementally for  20 cycles.
 Integral accuracy reduced to 1.0D-05 until final iterations.

 Cycle   1  Pass 0  IDiag  1:
 FoFJK:  IHMeth= 1 ICntrl=       0 DoSepK=F KAlg= 0 I1Cent=   0 FoldK=F
 IRaf= 780000000 NMat=   1 IRICut=       1 DoRegI=T DoRafI=F ISym2E= 0.
 FoFCou: FMM=F IPFlag=           0 FMFlag=      100000 FMFlg1=           0
         NFxFlg=           0 DoJE=F BraDBF=F KetDBF=F FulRan=T
         wScrn=  0.000000 ICntrl=       0 IOpCl=  0 I1Cent=           0 NGrid=           0
         NMat0=    1 NMatS0=      1 NMatT0=    0 NMatD0=    1 NMtDS0=    0 NMtDT0=    0
 Symmetry not used in FoFCou.
 E= -954.958438869966    
 DIIS: error= 2.22D-02 at cycle   1 NSaved=   1.
 NSaved= 1 IEnMin= 1 EnMin= -954.958438869966     IErMin= 1 ErrMin= 2.22D-02
 ErrMax= 2.22D-02  0.00D+00 EMaxC= 1.00D-01 BMatC= 5.95D-01 BMatP= 5.95D-01
 IDIUse=3 WtCom= 7.78D-01 WtEn= 2.22D-01
 Coeff-Com:  0.100D+01
 Coeff-En:   0.100D+01
 Coeff:      0.100D+01
 Gap=     0.165 Goal=   None    Shift=    0.000
 GapD=    0.165 DampG=1.000 DampE=0.500 DampFc=0.5000 IDamp=-1.
 Damping current iteration by 5.00D-01
 RMSDP=5.05D-03 MaxDP=2.92D-01              OVMax= 3.87D-01

 Cycle   2  Pass 0  IDiag  1:
 RMSU=  2.51D-03    CP:  9.82D-01
 E= -955.065259576664     Delta-E=       -0.106820706698 Rises=F Damp=T
 DIIS: error= 1.47D-02 at cycle   2 NSaved=   2.
 NSaved= 2 IEnMin= 2 EnMin= -955.065259576664     IErMin= 2 ErrMin= 1.47D-02
 ErrMax= 1.47D-02  0.00D+00 EMaxC= 1.00D-01 BMatC= 1.49D-01 BMatP= 5.95D-01
 IDIUse=3 WtCom= 8.53D-01 WtEn= 1.47D-01
 Coeff-Com:  0.267D+00 0.733D+00
 Coeff-En:   0.400D+00 0.600D+00
 Coeff:      0.287D+00 0.713D+00
 Gap=     0.177 Goal=   None    Shift=    0.000
 RMSDP=2.05D-03 MaxDP=1.76D-01 DE=-1.07D-01 OVMax= 2.48D-01

 Cycle   3  Pass 0  IDiag  1:
 RMSU=  1.79D-03    CP:  9.62D-01  6.18D-01
 E= -955.369360510108     Delta-E=       -0.304100933444 Rises=F Damp=F
 DIIS: error= 1.80D-02 at cycle   3 NSaved=   3.
 NSaved= 3 IEnMin= 3 EnMin= -955.369360510108     IErMin= 2 ErrMin= 1.47D-02
 ErrMax= 1.80D-02  0.00D+00 EMaxC= 1.00D-01 BMatC= 1.68D-01 BMatP= 1.49D-01
 IDIUse=2 WtCom= 0.00D+00 WtEn= 1.00D+00
 Coeff-En:   0.000D+00 0.623D-01 0.938D+00
 Coeff:      0.000D+00 0.623D-01 0.938D+00
 Gap=     0.183 Goal=   None    Shift=    0.000
 RMSDP=3.58D-03 MaxDP=3.40D-01 DE=-3.04D-01 OVMax= 4.26D-01

 Cycle   4  Pass 0  IDiag  1:
 RMSU=  1.78D-03    CP:  9.73D-01  1.33D+00 -4.23D-01
 E= -954.620463277313     Delta-E=        0.748897232795 Rises=F Damp=F
 DIIS: error= 4.42D-02 at cycle   4 NSaved=   4.
 NSaved= 4 IEnMin= 3 EnMin= -955.369360510108     IErMin= 2 ErrMin= 1.47D-02
 ErrMax= 4.42D-02  0.00D+00 EMaxC= 1.00D-01 BMatC= 1.09D+00 BMatP= 1.49D-01
 IDIUse=2 WtCom= 0.00D+00 WtEn= 1.00D+00
 Coeff-En:   0.000D+00 0.000D+00 0.794D+00 0.206D+00
 Coeff:      0.000D+00 0.000D+00 0.794D+00 0.206D+00
 Gap=     0.159 Goal=   None    Shift=    0.000
 RMSDP=2.10D-03 MaxDP=2.38D-01 DE= 7.49D-01 OVMax= 2.48D-01

 Cycle   5  Pass 0  IDiag  1:
 RMSU=  4.66D-04    CP:  9.70D-01  8.23D-01  3.10D-01  4.77D-01
 E= -955.456969441454     Delta-E=       -0.836506164141 Rises=F Damp=F
 DIIS: error= 1.19D-02 at cycle   5 NSaved=   5.
 NSaved= 5 IEnMin= 5 EnMin= -955.456969441454     IErMin= 5 ErrMin= 1.19D-02
 ErrMax= 1.19D-02  0.00D+00 EMaxC= 1.00D-01 BMatC= 7.30D-02 BMatP= 1.49D-01
 IDIUse=3 WtCom= 8.81D-01 WtEn= 1.19D-01
 Coeff-Com: -0.970D-03 0.572D-01 0.340D+00-0.575D-01 0.661D+00
 Coeff-En:   0.000D+00 0.000D+00 0.342D+00 0.000D+00 0.658D+00
 Coeff:     -0.855D-03 0.504D-01 0.340D+00-0.506D-01 0.661D+00
 Gap=     0.178 Goal=   None    Shift=    0.000
 RMSDP=6.73D-04 MaxDP=4.70D-02 DE=-8.37D-01 OVMax= 6.06D-02

 Cycle   6  Pass 0  IDiag  1:
 RMSU=  1.71D-04    CP:  9.67D-01  7.30D-01  5.80D-01  2.89D-01  6.78D-01
 E= -955.517681396938     Delta-E=       -0.060711955485 Rises=F Damp=F
 DIIS: error= 1.34D-03 at cycle   6 NSaved=   6.
 NSaved= 6 IEnMin= 6 EnMin= -955.517681396938     IErMin= 6 ErrMin= 1.34D-03
 ErrMax= 1.34D-03  0.00D+00 EMaxC= 1.00D-01 BMatC= 1.79D-03 BMatP= 7.30D-02
 IDIUse=3 WtCom= 9.87D-01 WtEn= 1.34D-02
 Coeff-Com: -0.782D-02 0.354D-01 0.178D+00-0.578D-01 0.447D+00 0.405D+00
 Coeff-En:   0.000D+00 0.000D+00 0.000D+00 0.000D+00 0.000D+00 0.100D+01
 Coeff:     -0.772D-02 0.349D-01 0.175D+00-0.571D-01 0.441D+00 0.413D+00
 Gap=     0.176 Goal=   None    Shift=    0.000
 RMSDP=1.13D-04 MaxDP=5.54D-03 DE=-6.07D-02 OVMax= 1.25D-02

 Cycle   7  Pass 0  IDiag  1:
 RMSU=  4.07D-05    CP:  9.67D-01  7.36D-01  5.74D-01  2.86D-01  7.66D-01
                    CP:  4.41D-01
 E= -955.519241440007     Delta-E=       -0.001560043069 Rises=F Damp=F
 DIIS: error= 4.25D-04 at cycle   7 NSaved=   7.
 NSaved= 7 IEnMin= 7 EnMin= -955.519241440007     IErMin= 7 ErrMin= 4.25D-04
 ErrMax= 4.25D-04  0.00D+00 EMaxC= 1.00D-01 BMatC= 9.63D-05 BMatP= 1.79D-03
 IDIUse=3 WtCom= 9.96D-01 WtEn= 4.25D-03
 Coeff-Com: -0.242D-02 0.982D-02 0.597D-01-0.221D-01 0.151D+00 0.203D+00
 Coeff-Com:  0.601D+00
 Coeff-En:   0.000D+00 0.000D+00 0.000D+00 0.000D+00 0.000D+00 0.000D+00
 Coeff-En:   0.100D+01
 Coeff:     -0.241D-02 0.978D-02 0.595D-01-0.220D-01 0.151D+00 0.202D+00
 Coeff:      0.603D+00
 Gap=     0.176 Goal=   None    Shift=    0.000
 RMSDP=2.69D-05 MaxDP=1.78D-03 DE=-1.56D-03 OVMax= 3.07D-03

 Cycle   8  Pass 0  IDiag  1:
 RMSU=  1.98D-05    CP:  9.67D-01  7.35D-01  5.76D-01  2.84D-01  7.59D-01
                    CP:  4.98D-01  6.55D-01
 E= -955.519291323996     Delta-E=       -0.000049883989 Rises=F Damp=F
 DIIS: error= 1.51D-04 at cycle   8 NSaved=   8.
 NSaved= 8 IEnMin= 8 EnMin= -955.519291323996     IErMin= 8 ErrMin= 1.51D-04
 ErrMax= 1.51D-04  0.00D+00 EMaxC= 1.00D-01 BMatC= 3.31D-05 BMatP= 9.63D-05
 IDIUse=3 WtCom= 9.98D-01 WtEn= 1.51D-03
 Coeff-Com:  0.341D-03-0.141D-02 0.902D-02-0.323D-02 0.159D-01 0.620D-01
 Coeff-Com:  0.446D+00 0.471D+00
 Coeff-En:   0.000D+00 0.000D+00 0.000D+00 0.000D+00 0.000D+00 0.000D+00
 Coeff-En:   0.234D+00 0.766D+00
 Coeff:      0.341D-03-0.141D-02 0.901D-02-0.323D-02 0.159D-01 0.619D-01
 Coeff:      0.446D+00 0.472D+00
 Gap=     0.176 Goal=   None    Shift=    0.000
 RMSDP=1.45D-05 MaxDP=9.42D-04 DE=-4.99D-05 OVMax= 1.61D-03

 Cycle   9  Pass 0  IDiag  1:
 RMSU=  5.03D-06    CP:  9.67D-01  7.33D-01  5.79D-01  2.84D-01  7.57D-01
                    CP:  4.98D-01  7.74D-01  4.80D-01
 E= -955.519319326700     Delta-E=       -0.000028002703 Rises=F Damp=F
 DIIS: error= 4.22D-05 at cycle   9 NSaved=   9.
 NSaved= 9 IEnMin= 9 EnMin= -955.519319326700     IErMin= 9 ErrMin= 4.22D-05
 ErrMax= 4.22D-05  0.00D+00 EMaxC= 1.00D-01 BMatC= 9.55D-07 BMatP= 3.31D-05
 IDIUse=1 WtCom= 1.00D+00 WtEn= 0.00D+00
 Coeff-Com:  0.374D-03-0.137D-02 0.253D-02-0.690D-03 0.175D-02 0.260D-01
 Coeff-Com:  0.219D+00 0.261D+00 0.491D+00
 Coeff:      0.374D-03-0.137D-02 0.253D-02-0.690D-03 0.175D-02 0.260D-01
 Coeff:      0.219D+00 0.261D+00 0.491D+00
 Gap=     0.176 Goal=   None    Shift=    0.000
 RMSDP=2.86D-06 MaxDP=1.41D-04 DE=-2.80D-05 OVMax= 2.70D-04

 Initial convergence to 1.0D-05 achieved.  Increase integral accuracy.
 Cycle  10  Pass 1  IDiag  1:
 E= -955.519180143159     Delta-E=        0.000139183541 Rises=F Damp=F
 DIIS: error= 4.90D-05 at cycle   1 NSaved=   1.
 NSaved= 1 IEnMin= 1 EnMin= -955.519180143159     IErMin= 1 ErrMin= 4.90D-05
 ErrMax= 4.90D-05  0.00D+00 EMaxC= 1.00D-01 BMatC= 1.05D-06 BMatP= 1.05D-06
 IDIUse=1 WtCom= 1.00D+00 WtEn= 0.00D+00
 Coeff-Com:  0.100D+01
 Coeff:      0.100D+01
 Gap=     0.176 Goal=   None    Shift=    0.000
 RMSDP=2.86D-06 MaxDP=1.41D-04 DE= 1.39D-04 OVMax= 3.52D-04

 Cycle  11  Pass 1  IDiag  1:
 RMSU=  2.72D-05    CP:  1.00D+00
 E= -955.519180782090     Delta-E=       -0.000000638931 Rises=F Damp=F
 DIIS: error= 1.86D-05 at cycle   2 NSaved=   2.
 NSaved= 2 IEnMin= 2 EnMin= -955.519180782090     IErMin= 2 ErrMin= 1.86D-05
 ErrMax= 1.86D-05  0.00D+00 EMaxC= 1.00D-01 BMatC= 4.99D-07 BMatP= 1.05D-06
 IDIUse=1 WtCom= 1.00D+00 WtEn= 0.00D+00
 Coeff-Com:  0.361D+00 0.639D+00
 Coeff:      0.361D+00 0.639D+00
 Gap=     0.176 Goal=   None    Shift=    0.000
 RMSDP=3.64D-06 MaxDP=1.64D-04 DE=-6.39D-07 OVMax= 4.84D-04

 Cycle  12  Pass 1  IDiag  1:
 RMSU=  3.64D-06    CP:  1.00D+00  1.00D+00
 E= -955.519180732149     Delta-E=        0.000000049941 Rises=F Damp=F
 DIIS: error= 1.84D-05 at cycle   3 NSaved=   3.
 NSaved= 3 IEnMin= 2 EnMin= -955.519180782090     IErMin= 3 ErrMin= 1.84D-05
 ErrMax= 1.84D-05  0.00D+00 EMaxC= 1.00D-01 BMatC= 5.51D-07 BMatP= 4.99D-07
 IDIUse=1 WtCom= 1.00D+00 WtEn= 0.00D+00
 Coeff-Com: -0.366D-02 0.514D+00 0.490D+00
 Coeff:     -0.366D-02 0.514D+00 0.490D+00
 Gap=     0.176 Goal=   None    Shift=    0.000
 RMSDP=2.00D-06 MaxDP=1.02D-04 DE= 4.99D-08 OVMax= 2.53D-04

 Cycle  13  Pass 1  IDiag  1:
 RMSU=  5.64D-07    CP:  1.00D+00  1.01D+00  4.78D-01
 E= -955.519181245573     Delta-E=       -0.000000513424 Rises=F Damp=F
 DIIS: error= 3.43D-06 at cycle   4 NSaved=   4.
 NSaved= 4 IEnMin= 4 EnMin= -955.519181245573     IErMin= 4 ErrMin= 3.43D-06
 ErrMax= 3.43D-06  0.00D+00 EMaxC= 1.00D-01 BMatC= 1.52D-08 BMatP= 4.99D-07
 IDIUse=1 WtCom= 1.00D+00 WtEn= 0.00D+00
 Coeff-Com: -0.951D-02 0.319D+00 0.318D+00 0.372D+00
 Coeff:     -0.951D-02 0.319D+00 0.318D+00 0.372D+00
 Gap=     0.176 Goal=   None    Shift=    0.000
 RMSDP=3.36D-07 MaxDP=2.10D-05 DE=-5.13D-07 OVMax= 4.52D-05

 Cycle  14  Pass 1  IDiag  1:
 RMSU=  2.24D-07    CP:  1.00D+00  1.01D+00  4.94D-01  5.72D-01
 E= -955.519181257314     Delta-E=       -0.000000011741 Rises=F Damp=F
 DIIS: error= 8.98D-07 at cycle   5 NSaved=   5.
 NSaved= 5 IEnMin= 5 EnMin= -955.519181257314     IErMin= 5 ErrMin= 8.98D-07
 ErrMax= 8.98D-07  0.00D+00 EMaxC= 1.00D-01 BMatC= 8.30D-10 BMatP= 1.52D-08
 IDIUse=1 WtCom= 1.00D+00 WtEn= 0.00D+00
 Coeff-Com: -0.451D-02 0.119D+00 0.122D+00 0.221D+00 0.543D+00
 Coeff:     -0.451D-02 0.119D+00 0.122D+00 0.221D+00 0.543D+00
 Gap=     0.176 Goal=   None    Shift=    0.000
 RMSDP=1.10D-07 MaxDP=6.71D-06 DE=-1.17D-08 OVMax= 1.08D-05

 Cycle  15  Pass 1  IDiag  1:
 RMSU=  8.01D-08    CP:  1.00D+00  1.01D+00  4.97D-01  5.77D-01  6.69D-01
 E= -955.519181257983     Delta-E=       -0.000000000669 Rises=F Damp=F
 DIIS: error= 6.47D-07 at cycle   6 NSaved=   6.
 NSaved= 6 IEnMin= 6 EnMin= -955.519181257983     IErMin= 6 ErrMin= 6.47D-07
 ErrMax= 6.47D-07  0.00D+00 EMaxC= 1.00D-01 BMatC= 2.03D-10 BMatP= 8.30D-10
 IDIUse=1 WtCom= 1.00D+00 WtEn= 0.00D+00
 Coeff-Com: -0.199D-02 0.413D-01 0.439D-01 0.106D+00 0.370D+00 0.441D+00
 Coeff:     -0.199D-02 0.413D-01 0.439D-01 0.106D+00 0.370D+00 0.441D+00
 Gap=     0.176 Goal=   None    Shift=    0.000
 RMSDP=4.17D-08 MaxDP=1.86D-06 DE=-6.69D-10 OVMax= 4.46D-06

 Cycle  16  Pass 1  IDiag  1:
 RMSU=  2.49D-08    CP:  1.00D+00  1.01D+00  4.96D-01  5.93D-01  7.39D-01
                    CP:  6.52D-01
 E= -955.519181258035     Delta-E=       -0.000000000051 Rises=F Damp=F
 DIIS: error= 1.32D-07 at cycle   7 NSaved=   7.
 NSaved= 7 IEnMin= 7 EnMin= -955.519181258035     IErMin= 7 ErrMin= 1.32D-07
 ErrMax= 1.32D-07  0.00D+00 EMaxC= 1.00D-01 BMatC= 1.17D-11 BMatP= 2.03D-10
 IDIUse=1 WtCom= 1.00D+00 WtEn= 0.00D+00
 Coeff-Com: -0.358D-03 0.338D-02 0.431D-02 0.246D-01 0.115D+00 0.235D+00
 Coeff-Com:  0.618D+00
 Coeff:     -0.358D-03 0.338D-02 0.431D-02 0.246D-01 0.115D+00 0.235D+00
 Coeff:      0.618D+00
 Gap=     0.176 Goal=   None    Shift=    0.000
 RMSDP=1.12D-08 MaxDP=5.03D-07 DE=-5.14D-11 OVMax= 1.04D-06

 Cycle  17  Pass 1  IDiag  1:
 RMSU=  8.27D-09    CP:  1.00D+00  1.01D+00  4.96D-01  5.96D-01  7.38D-01
                    CP:  7.00D-01  7.49D-01
 E= -955.519181258079     Delta-E=       -0.000000000044 Rises=F Damp=F
 DIIS: error= 5.47D-08 at cycle   8 NSaved=   8.
 NSaved= 8 IEnMin= 8 EnMin= -955.519181258079     IErMin= 8 ErrMin= 5.47D-08
 ErrMax= 5.47D-08  0.00D+00 EMaxC= 1.00D-01 BMatC= 2.43D-12 BMatP= 1.17D-11
 IDIUse=1 WtCom= 1.00D+00 WtEn= 0.00D+00
 Coeff-Com: -0.310D-04-0.192D-02-0.163D-02 0.489D-02 0.334D-01 0.972D-01
 Coeff-Com:  0.389D+00 0.480D+00
 Coeff:     -0.310D-04-0.192D-02-0.163D-02 0.489D-02 0.334D-01 0.972D-01
 Coeff:      0.389D+00 0.480D+00
 Gap=     0.176 Goal=   None    Shift=    0.000
 RMSDP=4.34D-09 MaxDP=2.78D-07 DE=-4.41D-11 OVMax= 4.48D-07

 SCF Done:  E(RB3LYP) =  -955.519181258     A.U. after   17 cycles
            NFock= 17  Conv=0.43D-08     -V/T= 2.0086
 KE= 9.473988999124D+02 PE=-5.755015974376D+03 EE= 2.086257878719D+03
 Leave Link  502 at Thu Feb 08 15:18:08 2024, MaxMem=    33554432 cpu:       131.0
 (Enter C:\G09W\l601.exe)
 Copying SCF densities to generalized density rwf, IOpCl= 0 IROHF=0.

 **********************************************************************

            Population analysis using the SCF density.

 **********************************************************************

 Orbital symmetries:
       Occupied  (A) (A) (A) (A) (A) (A) (A) (A) (A) (A) (A) (A)
                 (A) (A) (A) (A) (A) (A) (A) (A) (A) (A) (A) (A)
                 (A) (A) (A) (A) (A) (A) (A) (A) (A) (A) (A) (A)
                 (A) (A) (A) (A) (A) (A) (A) (A) (A) (A) (A) (A)
                 (A) (A) (A) (A) (A) (A) (A) (A) (A) (A) (A) (A)
                 (A) (A) (A) (A) (A) (A) (A) (A) (A) (A) (A) (A)
                 (A) (A) (A) (A)
       Virtual   (A) (A) (A) (A) (A) (A) (A) (A) (A) (A) (A) (A)
                 (A) (A) (A) (A) (A) (A) (A) (A) (A) (A) (A) (A)
                 (A) (A) (A) (A) (A) (A) (A) (A) (A) (A) (A) (A)
                 (A) (A) (A) (A) (A) (A) (A) (A) (A) (A) (A) (A)
                 (A) (A) (A) (A) (A) (A) (A) (A) (A) (A) (A) (A)
                 (A) (A) (A) (A) (A) (A) (A) (A) (A) (A) (A) (A)
                 (A) (A) (A) (A) (A) (A) (A) (A) (A) (A) (A) (A)
                 (A) (A) (A) (A) (A) (A) (A) (A) (A) (A) (A) (A)
                 (A) (A) (A) (A) (A) (A) (A) (A) (A) (A) (A) (A)
                 (A) (A) (A) (A) (A) (A) (A) (A) (A) (A) (A) (A)
                 (A) (A) (A) (A) (A) (A) (A) (A) (A) (A) (A) (A)
                 (A) (A) (A) (A) (A) (A) (A) (A) (A) (A) (A) (A)
                 (A) (A) (A) (A) (A) (A) (A) (A) (A) (A) (A) (A)
                 (A) (A) (A) (A) (A) (A) (A) (A) (A) (A) (A) (A)
                 (A) (A) (A) (A) (A) (A) (A) (A) (A) (A) (A) (A)
                 (A) (A) (A) (A) (A) (A) (A) (A) (A) (A) (A) (A)
                 (A) (A) (A) (A) (A) (A) (A) (A) (A) (A) (A) (A)
                 (A) (A) (A) (A) (A) (A) (A) (A) (A) (A) (A) (A)
                 (A) (A) (A) (A) (A) (A) (A) (A) (A) (A) (A) (A)
                 (A) (A) (A) (A) (A) (A) (A) (A) (A) (A) (A) (A)
                 (A) (A) (A) (A) (A) (A) (A) (A) (A) (A) (A) (A)
                 (A) (A) (A) (A) (A) (A) (A) (A) (A) (A) (A) (A)
                 (A) (A) (A) (A) (A) (A) (A) (A) (A) (A) (A) (A)
                 (A) (A) (A) (A) (A) (A) (A) (A) (A) (A) (A) (A)
                 (A) (A) (A) (A) (A) (A) (A) (A) (A) (A) (A) (A)
                 (A) (A) (A) (A) (A) (A) (A) (A) (A) (A) (A) (A)
                 (A) (A) (A) (A) (A) (A) (A) (A) (A) (A) (A) (A)
                 (A) (A) (A) (A) (A)
 The electronic state is 1-A.
 Alpha  occ. eigenvalues --  -19.20750 -19.16274 -19.08323 -14.38992 -14.34056
 Alpha  occ. eigenvalues --  -10.34519 -10.30431 -10.28402 -10.23161 -10.22675
 Alpha  occ. eigenvalues --  -10.22148 -10.21642 -10.21222 -10.19865 -10.19815
 Alpha  occ. eigenvalues --  -10.19518 -10.19476 -10.19109 -10.18650 -10.18632
 Alpha  occ. eigenvalues --  -10.16579  -1.09691  -1.02580  -1.01634  -0.98928
 Alpha  occ. eigenvalues --   -0.94104  -0.85300  -0.84130  -0.80510  -0.78580
 Alpha  occ. eigenvalues --   -0.74582  -0.73446  -0.72248  -0.69400  -0.68838
 Alpha  occ. eigenvalues --   -0.63618  -0.62492  -0.60986  -0.58833  -0.56742
 Alpha  occ. eigenvalues --   -0.55571  -0.54946  -0.52035  -0.50107  -0.49678
 Alpha  occ. eigenvalues --   -0.48314  -0.48003  -0.47081  -0.46136  -0.45707
 Alpha  occ. eigenvalues --   -0.45608  -0.44644  -0.43676  -0.43191  -0.42358
 Alpha  occ. eigenvalues --   -0.42029  -0.41749  -0.40255  -0.40089  -0.39397
 Alpha  occ. eigenvalues --   -0.39070  -0.37458  -0.37091  -0.36320  -0.35138
 Alpha  occ. eigenvalues --   -0.34241  -0.33079  -0.31281  -0.30548  -0.29129
 Alpha  occ. eigenvalues --   -0.28925  -0.25612  -0.23725  -0.22983  -0.22470
 Alpha  occ. eigenvalues --   -0.21571
 Alpha virt. eigenvalues --   -0.04002  -0.03239  -0.02627   0.01202   0.04576
 Alpha virt. eigenvalues --    0.06856   0.08025   0.08460   0.09401   0.10001
 Alpha virt. eigenvalues --    0.11494   0.12405   0.13075   0.13564   0.14189
 Alpha virt. eigenvalues --    0.14722   0.15345   0.16059   0.16280   0.16675
 Alpha virt. eigenvalues --    0.17349   0.17992   0.18366   0.18478   0.19036
 Alpha virt. eigenvalues --    0.20952   0.21138   0.22024   0.24380   0.24521
 Alpha virt. eigenvalues --    0.26021   0.26451   0.27161   0.27864   0.29466
 Alpha virt. eigenvalues --    0.30074   0.31297   0.32145   0.33064   0.33884
 Alpha virt. eigenvalues --    0.35090   0.36735   0.39400   0.40356   0.44295
 Alpha virt. eigenvalues --    0.45579   0.47147   0.47936   0.49056   0.50004
 Alpha virt. eigenvalues --    0.50568   0.51374   0.52750   0.53957   0.54017
 Alpha virt. eigenvalues --    0.55312   0.55450   0.56015   0.56963   0.57999
 Alpha virt. eigenvalues --    0.58283   0.58902   0.59548   0.60128   0.60708
 Alpha virt. eigenvalues --    0.61044   0.62449   0.62680   0.63934   0.63966
 Alpha virt. eigenvalues --    0.64343   0.65757   0.66644   0.67642   0.68811
 Alpha virt. eigenvalues --    0.69157   0.70396   0.71258   0.72892   0.74029
 Alpha virt. eigenvalues --    0.74340   0.75212   0.75948   0.77641   0.78644
 Alpha virt. eigenvalues --    0.79306   0.79886   0.81593   0.81924   0.82795
 Alpha virt. eigenvalues --    0.83048   0.83137   0.83316   0.84449   0.84989
 Alpha virt. eigenvalues --    0.86561   0.87127   0.87553   0.88404   0.89002
 Alpha virt. eigenvalues --    0.90108   0.90478   0.91229   0.92241   0.93076
 Alpha virt. eigenvalues --    0.93574   0.94889   0.96158   0.97075   0.98960
 Alpha virt. eigenvalues --    1.00457   1.01027   1.02416   1.03446   1.04362
 Alpha virt. eigenvalues --    1.05699   1.07508   1.08299   1.08952   1.10104
 Alpha virt. eigenvalues --    1.11692   1.11754   1.13976   1.14436   1.16029
 Alpha virt. eigenvalues --    1.17003   1.19212   1.20275   1.20463   1.21065
 Alpha virt. eigenvalues --    1.23128   1.25897   1.29023   1.30207   1.31019
 Alpha virt. eigenvalues --    1.31359   1.33051   1.33986   1.34367   1.34878
 Alpha virt. eigenvalues --    1.36040   1.36597   1.37689   1.38239   1.40023
 Alpha virt. eigenvalues --    1.40388   1.41936   1.43318   1.44390   1.45258
 Alpha virt. eigenvalues --    1.46603   1.48763   1.49460   1.51612   1.52817
 Alpha virt. eigenvalues --    1.54749   1.56595   1.58864   1.61665   1.62578
 Alpha virt. eigenvalues --    1.63346   1.64848   1.68100   1.70592   1.71030
 Alpha virt. eigenvalues --    1.73315   1.75085   1.76202   1.76812   1.78241
 Alpha virt. eigenvalues --    1.79652   1.79872   1.82067   1.82432   1.82648
 Alpha virt. eigenvalues --    1.83350   1.85506   1.85688   1.86231   1.87308
 Alpha virt. eigenvalues --    1.88284   1.89152   1.90004   1.90795   1.91032
 Alpha virt. eigenvalues --    1.93404   1.94189   1.94680   1.95776   1.96247
 Alpha virt. eigenvalues --    1.97147   1.98345   1.98498   1.99233   2.00075
 Alpha virt. eigenvalues --    2.00508   2.01891   2.03511   2.04296   2.04611
 Alpha virt. eigenvalues --    2.06155   2.06395   2.07347   2.09015   2.09648
 Alpha virt. eigenvalues --    2.10686   2.11333   2.13956   2.14599   2.16110
 Alpha virt. eigenvalues --    2.16977   2.17466   2.18934   2.19693   2.21432
 Alpha virt. eigenvalues --    2.22133   2.22395   2.25409   2.26241   2.27166
 Alpha virt. eigenvalues --    2.27945   2.30490   2.31254   2.33151   2.34486
 Alpha virt. eigenvalues --    2.35182   2.37989   2.38894   2.39568   2.40282
 Alpha virt. eigenvalues --    2.40910   2.42109   2.43194   2.43357   2.44412
 Alpha virt. eigenvalues --    2.46141   2.46830   2.48645   2.49295   2.50703
 Alpha virt. eigenvalues --    2.52025   2.53647   2.55042   2.55171   2.55320
 Alpha virt. eigenvalues --    2.55971   2.57161   2.58483   2.58821   2.59432
 Alpha virt. eigenvalues --    2.60412   2.61491   2.63212   2.64403   2.64843
 Alpha virt. eigenvalues --    2.67215   2.68652   2.69600   2.69736   2.71229
 Alpha virt. eigenvalues --    2.72246   2.73140   2.73471   2.75527   2.76946
 Alpha virt. eigenvalues --    2.78654   2.79816   2.80618   2.84940   2.85959
 Alpha virt. eigenvalues --    2.88673   2.88955   2.89871   2.92224   2.93094
 Alpha virt. eigenvalues --    2.93581   2.94258   2.98637   2.99673   3.01539
 Alpha virt. eigenvalues --    3.01782   3.05158   3.07717   3.08188   3.08847
 Alpha virt. eigenvalues --    3.16422   3.23271   3.24881   3.27191   3.28284
 Alpha virt. eigenvalues --    3.30619   3.32674   3.33347   3.39076   3.39550
 Alpha virt. eigenvalues --    3.42826   3.45737   3.47073   3.49572   3.49657
 Alpha virt. eigenvalues --    3.50994   3.53156   3.54214   3.56161   3.60140
 Alpha virt. eigenvalues --    3.63747   3.69923   3.88390   4.05421   4.12257
 Alpha virt. eigenvalues --    4.13769   4.15282   4.16012   4.21103   4.27462
 Alpha virt. eigenvalues --    4.30153   4.34426   4.37107   4.39168   4.42170
 Alpha virt. eigenvalues --    4.50582   4.52409   4.55868   4.60596   4.60821
 Alpha virt. eigenvalues --    4.71132   4.75315   4.85250   4.94081
          Condensed to atoms (all electrons):
               1          2          3          4          5          6
     1  N    7.290369   0.201336  -0.044314  -0.026440   0.002324  -0.063755
     2  C    0.201336   5.001451   0.390181   0.319233  -0.055131   0.317671
     3  H   -0.044314   0.390181   0.561206  -0.039904   0.002217  -0.040895
     4  C   -0.026440   0.319233  -0.039904   4.520220   0.468976  -0.031007
     5  O    0.002324  -0.055131   0.002217   0.468976   8.111071   0.000239
     6  C   -0.063755   0.317671  -0.040895  -0.031007   0.000239   5.093432
     7  H    0.005345  -0.037706   0.000115  -0.003356   0.001805   0.363114
     8  H   -0.002633  -0.029024  -0.005202   0.004980  -0.000014   0.381240
     9  C   -0.014931  -0.043577   0.005648  -0.016346  -0.000826   0.350792
    10  C    0.006757  -0.003724   0.000078  -0.001045  -0.000017  -0.082027
    11  H    0.000059   0.000063  -0.000020   0.000085   0.000000  -0.002032
    12  C   -0.000637  -0.003935  -0.000025   0.004884  -0.000290  -0.047288
    13  N    0.000006   0.000104   0.000000  -0.000012   0.000000   0.004605
    14  H   -0.000004   0.000000   0.000000   0.000000   0.000000  -0.000063
    15  C    0.000088   0.000015   0.000006  -0.000106   0.000002   0.010467
    16  C    0.000093  -0.000701  -0.000030   0.005613  -0.004649  -0.016606
    17  H    0.000023  -0.000553   0.000059   0.003604   0.007089   0.002671
    18  C    0.000001   0.000001   0.000000  -0.000025   0.000000  -0.000220
    19  H    0.000000   0.000000   0.000000   0.000000   0.000000   0.000002
    20  C    0.000000   0.000001   0.000000  -0.000003  -0.000011   0.000118
    21  H    0.000000   0.000000   0.000000   0.000003  -0.000003   0.000000
    22  C    0.000000   0.000000   0.000000  -0.000003   0.000001   0.000001
    23  H    0.000000   0.000000   0.000000   0.000000   0.000000   0.000000
    24  O    0.000028  -0.060786   0.002117   0.205504  -0.067223  -0.003674
    25  H    0.179005  -0.020732   0.006052  -0.019155   0.000145  -0.005453
    26  C   -0.000032   0.004337  -0.000066  -0.019290  -0.005152  -0.000276
    27  H   -0.000003  -0.000107   0.000003   0.005190   0.000693  -0.000006
    28  H   -0.000046   0.000327   0.000009  -0.008580   0.011630  -0.000046
    29  H    0.000023   0.000143  -0.000039  -0.010489   0.003213   0.000474
    30  C    0.211960  -0.015305  -0.001233   0.003161   0.000002   0.001291
    31  C   -0.124712   0.004450  -0.000237   0.000596  -0.000002   0.000100
    32  C    0.006979  -0.000076   0.000000   0.000003   0.000000   0.000005
    33  C   -0.005163   0.000459   0.000050   0.000249  -0.000042  -0.000239
    34  O   -0.129231   0.000293   0.000418  -0.000059   0.000000  -0.000056
    35  H   -0.000102   0.000001   0.000000   0.000000   0.000000   0.000000
    36  H    0.000441  -0.000004   0.000000   0.000000   0.000000   0.000000
    37  H    0.000150   0.000016   0.000001  -0.000017   0.000001  -0.000004
    38  H    0.002272  -0.001324  -0.000159   0.001592  -0.000018   0.000647
    39  H    0.000135   0.000053  -0.000003  -0.000045   0.000001   0.000036
               7          8          9         10         11         12
     1  N    0.005345  -0.002633  -0.014931   0.006757   0.000059  -0.000637
     2  C   -0.037706  -0.029024  -0.043577  -0.003724   0.000063  -0.003935
     3  H    0.000115  -0.005202   0.005648   0.000078  -0.000020  -0.000025
     4  C   -0.003356   0.004980  -0.016346  -0.001045   0.000085   0.004884
     5  O    0.001805  -0.000014  -0.000826  -0.000017   0.000000  -0.000290
     6  C    0.363114   0.381240   0.350792  -0.082027  -0.002032  -0.047288
     7  H    0.587753  -0.028802  -0.026097   0.004579  -0.000083  -0.007612
     8  H   -0.028802   0.564339  -0.026311  -0.005913   0.002781   0.003447
     9  C   -0.026097  -0.026311   4.995634   0.499744  -0.026434   0.403994
    10  C    0.004579  -0.005913   0.499744   5.022453   0.370813   0.021718
    11  H   -0.000083   0.002781  -0.026434   0.370813   0.552647   0.002371
    12  C   -0.007612   0.003447   0.403994   0.021718   0.002371   4.789084
    13  N   -0.000080  -0.000027  -0.061798   0.294166  -0.038105  -0.052062
    14  H    0.000002  -0.000002   0.003901  -0.028102  -0.000833   0.007870
    15  C   -0.000231  -0.000075   0.013051  -0.141504   0.005004   0.454259
    16  C    0.003802  -0.000056  -0.129609   0.019033  -0.000260   0.462233
    17  H    0.003019  -0.000009  -0.010945  -0.000104  -0.000004  -0.041564
    18  C   -0.000005   0.000004   0.016374   0.005108  -0.000086  -0.045056
    19  H    0.000000   0.000000  -0.000365  -0.000013   0.000001   0.005454
    20  C   -0.000015   0.000000   0.010310  -0.000560   0.000005  -0.006016
    21  H    0.000002   0.000000  -0.000260   0.000006   0.000000   0.002550
    22  C    0.000002   0.000000  -0.000155  -0.000061   0.000001  -0.038427
    23  H    0.000000   0.000000   0.000003   0.000004   0.000000   0.000972
    24  O    0.000238  -0.000095   0.006449  -0.000024  -0.000001  -0.001766
    25  H    0.000122  -0.000688   0.005411   0.002275  -0.000425   0.000210
    26  C    0.000021   0.000008   0.000257   0.000063   0.000000  -0.004578
    27  H   -0.000001   0.000000  -0.000086   0.000001   0.000000   0.000032
    28  H   -0.000006   0.000000   0.000056  -0.000003   0.000000   0.000604
    29  H   -0.000021   0.000000  -0.001412   0.000009   0.000001  -0.016441
    30  C    0.000015   0.000542   0.000720   0.001207   0.001701   0.000053
    31  C    0.000000   0.000026  -0.000724  -0.000689   0.000560   0.000047
    32  C    0.000000   0.000000  -0.000013  -0.000126   0.000038   0.000000
    33  C    0.000009   0.000002   0.001033   0.001102  -0.000079   0.000310
    34  O    0.000000  -0.000070   0.000046  -0.000252   0.000152   0.000000
    35  H    0.000000   0.000000   0.000000   0.000000   0.000000   0.000000
    36  H    0.000000   0.000000   0.000000   0.000002  -0.000001   0.000000
    37  H    0.000000   0.000000   0.000050   0.000109   0.000001   0.000000
    38  H   -0.000020   0.000006  -0.000989  -0.000751   0.000029  -0.000138
    39  H   -0.000002  -0.000002  -0.001119   0.000378  -0.000143  -0.001121
              13         14         15         16         17         18
     1  N    0.000006  -0.000004   0.000088   0.000093   0.000023   0.000001
     2  C    0.000104   0.000000   0.000015  -0.000701  -0.000553   0.000001
     3  H    0.000000   0.000000   0.000006  -0.000030   0.000059   0.000000
     4  C   -0.000012   0.000000  -0.000106   0.005613   0.003604  -0.000025
     5  O    0.000000   0.000000   0.000002  -0.004649   0.007089   0.000000
     6  C    0.004605  -0.000063   0.010467  -0.016606   0.002671  -0.000220
     7  H   -0.000080   0.000002  -0.000231   0.003802   0.003019  -0.000005
     8  H   -0.000027  -0.000002  -0.000075  -0.000056  -0.000009   0.000004
     9  C   -0.061798   0.003901   0.013051  -0.129609  -0.010945   0.016374
    10  C    0.294166  -0.028102  -0.141504   0.019033  -0.000104   0.005108
    11  H   -0.038105  -0.000833   0.005004  -0.000260  -0.000004  -0.000086
    12  C   -0.052062   0.007870   0.454259   0.462233  -0.041564  -0.045056
    13  N    6.985279   0.362676   0.247970   0.014113  -0.000084  -0.109586
    14  H    0.362676   0.429014  -0.033390  -0.000142   0.000005  -0.005622
    15  C    0.247970  -0.033390   4.770771  -0.068286   0.005460   0.476795
    16  C    0.014113  -0.000142  -0.068286   5.263902   0.370779  -0.065641
    17  H   -0.000084   0.000005   0.005460   0.370779   0.597258   0.000188
    18  C   -0.109586  -0.005622   0.476795  -0.065641   0.000188   5.017674
    19  H   -0.006854   0.003061  -0.036146   0.000726   0.000017   0.358019
    20  C   -0.000429  -0.000001  -0.044781   0.468659  -0.041432  -0.022903
    21  H    0.000004   0.000000   0.001278  -0.037639  -0.004446   0.004301
    22  C    0.006123  -0.000066  -0.003592  -0.025800   0.004255   0.516106
    23  H   -0.000124  -0.000002   0.002929   0.004617  -0.000160  -0.037038
    24  O   -0.000065  -0.000002  -0.000690   0.001152  -0.001167   0.000040
    25  H   -0.000242  -0.000002  -0.000060   0.000019   0.000005   0.000002
    26  C   -0.000158  -0.000001   0.001447  -0.039942  -0.001375   0.001686
    27  H    0.000001   0.000000   0.000052   0.000410   0.000190  -0.000006
    28  H    0.000000   0.000000  -0.000009   0.001326  -0.000311   0.000000
    29  H    0.000078   0.000000  -0.000753   0.013098  -0.001818  -0.000984
    30  C   -0.000023   0.000000  -0.000024  -0.000001   0.000000   0.000000
    31  C    0.000066   0.000004  -0.000003   0.000001   0.000000   0.000000
    32  C    0.000006   0.000000   0.000000   0.000000   0.000000   0.000000
    33  C   -0.003758   0.000020   0.000653  -0.000039  -0.000004   0.000097
    34  O    0.000000   0.000000   0.000000   0.000000   0.000000   0.000000
    35  H    0.000000   0.000000   0.000000   0.000000   0.000000   0.000000
    36  H    0.000000   0.000000   0.000000   0.000000   0.000000   0.000000
    37  H    0.000028   0.000000  -0.000031  -0.000001   0.000000  -0.000002
    38  H    0.000110  -0.000001   0.000080   0.000012   0.000004  -0.000008
    39  H    0.007273   0.000178   0.001029  -0.000028   0.000000  -0.000130
              19         20         21         22         23         24
     1  N    0.000000   0.000000   0.000000   0.000000   0.000000   0.000028
[...]
 .00018428,-0.00005620,-0.00005826,0.00004584,-0.00004391,0.00000832,-0
 .00000852,-0.00000342,-0.00000651,0.00000738,-0.00002148,-0.00001133,0
 .00000875,0.00001578,-0.00003624,-0.00002909,0.00001807,-0.00001104,-0
 .00001280,-0.00000516,-0.00001806,0.00001223,0.00000499,0.00004993,0.0
 0000980,-0.00002630,0.00000326,-0.00000493,0.00000772,0.00001805,0.000
 01720,-0.00000630,0.00000178,0.00000197,0.00000327,-0.00000629,0.00000
 350,-0.00000391,-0.00000799,-0.00000024,0.00000045,0.00000351,0.000003
 59,-0.00000060,0.00000365,0.00000308,-0.00000177,0.00000193,-0.0000029
 5,-0.00000026,0.00000627,-0.00000691,-0.00000151,0.00000452,-0.0000006
 5,-0.00000071,0.00007105,-0.00006394,-0.00013861,0.00011422,0.00017119
 ,0.00021232,-0.00003963,0.00004262,0.00005297,0.00000706,-0.00000188,-
 0.00001133,0.00000723,-0.00001093,-0.00000034,0.00000620,-0.00001058,-
 0.00000436,0.00703564,0.00518501,0.00134501,0.00512264,-0.00749233,0.0
 1479057,0.06767258,-0.18205416,0.13457568,-0.00421177,-0.00313051,-0.0
 0138779,-0.00058880,-0.00022732,-0.00036558,-0.07723859,0.18707169,-0.
 00032289,-0.00033562,0.00040979,-0.00011673,-0.00038773,-0.00009196,0.
 00001840,-0.00005585,0.00001723,0.00001756,-0.00011895,0.00001817,-0.0
 0000765,0.00002706,-0.00000510,-0.00001926,0.00008734,-0.00005618,-0.0
 0002390,-0.00000994,-0.00002213,0.00002134,0.00000772,0.00002982,0.000
 02468,0.00000521,-0.00001892,0.00001936,0.00003703,-0.00000961,0.00000
 484,0.00001250,-0.00000423,0.00000793,-0.00001906,0.00000063,-0.000042
 75,-0.00002237,0.00001464,-0.00000593,0.00001243,0.00000117,-0.0000115
 5,-0.00000673,0.00000526,-0.00000027,-0.00000188,-0.00000303,0.0000042
 6,-0.00000313,0.00000260,0.00000486,-0.00000077,-0.00000225,-0.0000027
 1,-0.00000238,0.00000179,-0.00000163,-0.00000269,0.00000008,-0.0000007
 0,0.00000161,0.00000079,-0.00000287,0.00000346,-0.00000039,-0.00000289
 ,0.00000052,0.00000110,-0.00004134,0.00004413,0.00004020,0.00002977,0.
 00014134,0.00011939,0.00002435,-0.00002035,-0.00002185,-0.00000109,0.0
 0000028,0.00000362,-0.00000246,0.00000504,0.00000168,-0.00000456,0.000
 00461,0.00000173,0.00524600,0.00302726,0.00044558,0.00506964,-0.004524
 90,0.00671508,-0.05158607,0.13779284,-0.17874799,-0.00150324,-0.003268
 77,-0.00063784,-0.00186021,0.00059873,0.00058137,0.05408534,-0.1485869
 6,0.17972617,0.00107117,-0.00037580,-0.00053561,0.00014099,0.00026602,
 -0.00001522,-0.00002952,0.00008245,-0.00000832,-0.00008567,0.00015988,
 0.00016893,0.00003629,-0.00007480,-0.00004988,0.00000234,-0.00006223,0
 .00006091,0.00003034,0.00000429,0.00002225,-0.00003070,-0.00000533,-0.
 00005403,-0.00001821,-0.00001451,0.00001490,-0.00004834,-0.00000896,0.
 00000948,-0.00002057,-0.00001126,0.00000584,-0.00002196,0.00000795,0.0
 0000439,0.00005316,-0.00000680,-0.00002537,-0.00000115,-0.00000364,0.0
 0000894,0.00002401,0.00002781,-0.00000824,-0.00000133,0.00000825,-0.00
 000180,-0.00000474,0.00000342,0.00000092,-0.00001287,-0.00000049,0.000
 00193,0.00000383,0.00000403,-0.00000030,0.00000941,0.00000113,-0.00000
 543,0.00000361,-0.00000413,0.00000021,0.00000992,-0.00001201,-0.000002
 23,0.00000526,-0.00000123,-0.00000053,0.00006866,-0.00006104,-0.000164
 27,0.00013914,-0.00019713,0.00011201,-0.00002531,0.00002542,0.00004945
 ,0.00001037,-0.00000473,-0.00001365,0.00000607,-0.00001056,-0.00000278
 ,0.00000474,-0.00000618,-0.00000595,-0.00493087,-0.00336350,0.00166389
 ,-0.00883857,-0.00300741,0.02329152,-0.12413144,-0.00764685,0.12822114
 ,0.00227861,0.00782788,0.00223400,0.00191325,-0.00103727,-0.00165164,0
 .00742921,0.00182443,-0.00907980,0.12608217,-0.00116117,0.00085327,0.0
 0071405,0.00016895,0.00003921,0.00037536,0.00005331,-0.00007668,-0.000
 02759,0.00011556,-0.00011385,-0.00016429,-0.00009245,0.00011628,0.0000
 2586,0.00004912,0.00000743,-0.00000283,-0.00002453,0.00000019,-0.00000
 364,0.00003674,0.00001675,0.00004815,0.00004007,0.00000540,-0.00003110
 ,0.00004548,0.00007743,-0.00001450,-0.00000004,0.00001193,-0.00001108,
 0.00000604,-0.00004180,0.00000204,-0.00008062,-0.00006208,0.00005494,-
 0.00001868,0.00001259,-0.00001135,-0.00001542,0.00000103,0.00000144,-0
 .00000332,0.00000786,-0.00000775,0.00000766,-0.00000575,0.00000676,-0.
 00000182,-0.00000298,0.00000265,-0.00000512,-0.00000302,0.00000108,0.0
 0000515,-0.00000300,-0.00000265,0.00000047,0.00000058,0.00000112,-0.00
 000222,-0.00000133,0.00000099,-0.00000283,-0.00000021,0.00000089,-0.00
 009647,0.00007288,0.00012183,-0.00019459,0.00016244,-0.00011576,0.0000
 4808,-0.00003154,-0.00004724,-0.00000351,0.00000494,0.00001151,-0.0000
 0703,0.00000743,0.00000393,-0.00000893,0.00001178,0.00000365,-0.000806
 64,-0.00367023,-0.00480942,0.00948059,0.00731143,-0.01642117,-0.010521
 69,-0.05169721,0.03591071,0.00723152,0.00361070,0.00436497,-0.00092275
 ,-0.00068745,0.00157990,-0.00969679,0.00116410,0.01551565,0.00611091,0
 .04313562,0.00076962,-0.00030728,-0.00019124,0.00007715,0.00017890,-0.
 00001038,-0.00002485,0.00003114,0.00001908,-0.00002661,0.00006734,0.00
 002869,0.00000726,-0.00003156,-0.00000909,0.00001186,-0.00002007,0.000
 04613,0.00000908,0.00000387,0.00001086,-0.00000530,-0.00000564,-0.0000
 1082,-0.00000668,-0.00000371,0.00000632,0.00000042,-0.00001045,0.00000
 515,0.00000113,-0.00000429,0.00000095,-0.00001039,0.00000199,0.0000016
 8,0.00001205,-0.00000437,0.00000245,-0.00000284,-0.00000228,-0.0000043
 2,0.00000271,0.00001257,-0.00000349,-0.00000068,0.00000476,-0.00000084
 ,-0.00000160,0.00000091,0.00000064,-0.00000477,-0.00000070,0.00000183,
 0.00000058,0.00000130,-0.00000067,0.00000316,0.00000096,-0.00000168,0.
 00000146,-0.00000197,0.00000001,0.00000223,-0.00000333,0.00000007,0.00
 000219,-0.00000044,-0.00000063,0.00001749,-0.00003651,-0.00003714,0.00
 007362,-0.00005147,-0.00006118,-0.00000948,0.00001451,0.00001700,0.000
 00349,0.00000086,-0.00000218,0.00000238,-0.00000635,0.00000027,0.00000
 133,-0.00000204,-0.00000206,-0.00244592,-0.00140760,-0.00211670,0.0040
 4124,0.00053090,-0.00126006,0.13240845,0.03196805,-0.26584687,0.003116
 14,0.00365930,0.00305860,-0.00153680,0.00160320,-0.00087316,0.00875131
 ,0.00003966,-0.00899328,-0.14508584,-0.03558351,0.27602304,0.00021676,
 0.00020344,-0.00019184,0.00041484,-0.00007565,-0.00001506,-0.00005852,
 0.00011497,-0.00008500,-0.00001335,-0.00009776,0.00008621,-0.00001698,
 0.00006570,-0.00003168,-0.00001795,-0.00000599,0.00002913,0.00000021,0
 .00000652,-0.00000425,-0.00000879,-0.00000770,-0.00000502,-0.00001643,
 -0.00006816,-0.00001942,-0.00002701,0.00005408,-0.00006546,0.00000106,
 0.00003174,0.00004794,0.00002956,0.00000382,-0.00000733,0.00000409,0.0
 0000791,-0.00003433,0.00000644,0.00002444,0.00000541,-0.00002291,-0.00
 001497,0.00002114,0.00000448,-0.00002055,-0.00000302,0.00000381,-0.000
 00075,0.00000385,0.00003027,0.00000018,-0.00000984,-0.00000472,-0.0000
 0530,0.00000182,-0.00001717,-0.00000746,0.00000472,-0.00000266,0.00000
 360,0.00000099,-0.00001115,0.00002167,-0.00000052,-0.00000549,0.000002
 28,0.00000111,-0.00000257,0.00007301,-0.00002928,0.00006011,-0.0009040
 8,0.00001835,0.00003964,-0.00004508,-0.00004167,0.00000024,-0.00000566
 ,-0.00000173,-0.00000327,0.00001170,0.00000105,-0.00000502,0.00000391,
 0.00000160,-0.00290662,0.00197410,0.00246872,0.00689929,-0.01418244,0.
 01170619,0.00056281,-0.00123263,0.00057357,-0.08609684,0.07412346,-0.0
 6212588,0.00045167,-0.00116238,0.00111865,-0.00012041,0.00039195,-0.00
 001577,0.00009492,-0.00011438,-0.00025458,0.09147297,0.00037111,0.0001
 6650,0.00019164,-0.00011296,0.00032923,-0.00015107,0.00000475,0.000013
 92,0.00002956,-0.00006220,0.00015600,-0.00005849,0.00006222,-0.0001480
 8,0.00003957,-0.00001075,-0.00008530,0.00004033,0.00003053,0.00001501,
 0.00002524,-0.00000483,0.00000290,-0.00001361,-0.00002507,-0.00000699,
 0.00002512,-0.00004513,-0.00004068,0.00000803,-0.00000536,-0.00000316,
 0.00000659,-0.00001036,0.00001692,0.00000192,0.00006942,0.00002516,-0.
 00003473,0.00000356,-0.00000639,0.00000800,0.00000996,0.00001620,-0.00
 000329,0.00000158,0.00000054,0.00000775,-0.00000817,0.00000531,-0.0000
 0750,-0.00000424,0.00000009,-0.00000005,0.00000391,0.00000432,-0.00000
 077,0.00000125,0.00000459,0.00000061,0.00000084,-0.00000260,-0.0000008
 4,0.00000377,-0.00000484,-0.00000108,0.00000527,-0.00000057,-0.0000009
 0,0.00010302,-0.00010186,0.00001755,-0.00074925,-0.00037181,-0.0002592
 8,-0.00007535,0.00007692,0.00007390,-0.00000530,0.00000415,-0.00000325
 ,0.00000689,-0.00001374,-0.00000242,0.00001472,-0.00001778,-0.00000262
 ,0.00072875,0.00096106,-0.00072186,0.00010225,-0.00142206,0.00091096,0
 .00039473,0.00030721,-0.00162741,0.07282837,-0.18527115,0.11535575,-0.
 00040851,0.00004080,0.00044422,-0.00018914,0.00052668,0.00004339,-0.00
 015943,-0.00003607,-0.00010729,-0.08070939,0.19689950,-0.00029910,0.00
 021712,0.00067425,-0.00002780,-0.00011789,0.00035242,0.00007208,-0.000
 07118,-0.00004116,0.00011132,-0.00010630,-0.00027973,-0.00006676,0.000
 08255,0.00007204,0.00000983,0.00002299,-0.00000757,-0.00002112,0.00000
 233,-0.00001489,0.00002920,0.00001548,0.00004312,0.00002680,-0.0000077
 4,-0.00002251,0.00002875,0.00005006,-0.00002875,0.00000982,0.00002701,
 0.00000781,0.00001712,-0.00002508,-0.00000206,-0.00005304,-0.00002702,
 0.00002431,-0.00001157,0.00001678,-0.00000837,-0.00002918,-0.00000872,
 0.00000971,0.00000032,-0.00000379,-0.00000123,0.00000506,-0.00000386,0
 .00000087,0.00001246,-0.00000191,-0.00000197,-0.00000490,-0.00000332,0
 .00000121,-0.00000606,-0.00000237,0.00000355,-0.00000197,0.00000207,0.
 00000023,-0.00000833,0.00000956,0.00000130,-0.00000368,0.00000081,0.00
 000058,-0.00005812,0.00005478,0.00018837,-0.00028226,-0.00005689,-0.00
 070865,0.00001604,-0.00001132,-0.00003405,-0.00001166,0.00000618,0.000
 01385,-0.00000500,0.00000641,0.00000146,-0.00000229,0.00000427,0.00000
 537,0.00430327,-0.00237553,-0.00107510,-0.01048775,0.02036114,-0.01792
 257,-0.00189341,0.00051106,0.00135600,-0.06020068,0.11370480,-0.142111
 37,-0.00004229,0.00146594,-0.00221861,0.00098654,-0.00079485,0.0002513
 2,-0.00019722,-0.00013856,0.00027947,0.06315884,-0.12528866,0.15430900
 ,0.00036299,-0.00022030,-0.00010446,-0.00013351,0.00008380,-0.00004712
 ,0.00001809,-0.00001207,0.00006387,0.00008962,0.00011517,-0.00024066,0
 .00001899,-0.00014170,0.00011342,-0.00002259,-0.00003164,0.00001489,0.
 00002342,0.00000576,0.00000311,-0.00000411,0.00000277,-0.00001160,-0.0
 0003707,-0.00001119,0.00002126,-0.00004890,-0.00005633,-0.00001510,-0.
 00001398,0.00000946,0.00005412,0.00001052,0.00003705,-0.00000139,0.000
 06307,0.00006129,-0.00005963,0.00003113,-0.00001095,0.00002467,0.00000
 125,-0.00002469,0.00000055,0.00000510,-0.00000515,0.00001116,-0.000006
 42,0.00000477,-0.00000947,0.00000738,0.00000166,0.00000114,0.00000189,
 0.00000021,-0.00000217,-0.00001199,0.00000633,0.00000792,-0.00000192,0
 .00000031,-0.00000224,-0.00000708,0.00000954,0.00000315,0.00000046,0.0
 0000094,-0.00000170,0.00001366,-0.00016199,0.00021034,-0.00021888,0.00
 021814,-0.00123191,-0.00005677,0.00008800,0.00001003,-0.00000902,0.000
 02684,0.00001689,0.00000729,-0.00002377,0.00001181,0.00000623,-0.00001
 593,0.00000088,0.00004535,0.00038283,-0.00060223,-0.00184738,0.0180744
 7,0.01080351,-0.00058873,-0.00096673,0.00263011,-0.04519532,-0.0014559
 3,-0.00220280,-0.00015067,-0.00021845,0.00010826,0.00068388,0.00065800
 ,0.00046028,-0.00160233,-0.00091546,-0.00059859,-0.00032637,0.01094918
 ,0.00721028,0.04845972,0.00013831,0.00001504,0.00062341,-0.00011911,0.
 00010275,0.00019158,0.00002742,-0.00002302,0.00002144,0.00004927,-0.00
 000170,-0.00016216,-0.00001155,0.00000645,0.00005894,-0.00002860,-0.00
 003243,-0.00000456,0.00000216,0.00001168,-0.00000110,0.00000952,0.0000
 0627,0.00002185,-0.00001139,0.00000188,-0.00000026,-0.00000291,-0.0000
 2632,-0.00001128,0.00000020,0.00000769,0.00002837,0.00001855,0.0000200
 6,-0.00000561,0.00000771,0.00004247,-0.00002044,0.00002068,-0.00000855
 ,0.00001019,-0.00000562,-0.00003307,0.00000502,0.00000424,-0.00000785,
 0.00000678,-0.00000021,0.00000081,-0.00000480,0.00000972,0.00000142,0.
 00000060,-0.00000054,-0.00000242,-0.00000166,-0.00001194,0.00000278,0.
 00000800,-0.00000321,0.00000285,-0.00000191,-0.00000862,0.00001191,0.0
 0000347,-0.00000350,0.00000108,-0.00000110,-0.00008075,0.00002942,0.00
 009159,-0.00027592,-0.00010350,0.00017560,0.00001360,-0.00000788,-0.00
 006113,-0.00000797,0.00000927,0.00001719,-0.00000225,0.00000087,0.0000
 0544,-0.00000432,0.00000184,0.00000629,0.00124301,-0.00080868,0.000302
 32,0.00280295,0.00529924,0.00069153,-0.00079284,0.00051517,-0.00024309
 ,-0.00260866,-0.24112762,-0.11047719,-0.00033826,0.00030226,-0.0002345
 6,-0.00028574,0.00002787,-0.00013469,-0.00007800,0.00000973,-0.0001153
 5,-0.00141570,-0.01859372,-0.01159690,0.00182940,0.26084530,-0.0003911
 4,0.00114083,0.00087717,-0.00037816,0.00052534,-0.00013019,0.00003096,
 -0.00007225,0.00006544,-0.00001519,0.00016538,-0.00031101,0.00005377,-
 0.00016398,0.00011707,0.00001605,-0.00012119,0.00003838,0.00003874,0.0
 0001870,0.00003524,0.00000445,0.00000889,0.00000329,-0.00003985,0.0000
 0381,0.00004700,-0.00003406,-0.00008194,0.00000273,0.00000930,0.000000
 22,0.00001778,-0.00000266,0.00003217,0.00000155,0.00007609,0.00005902,
 -0.00004192,0.00001345,-0.00001363,0.00000361,-0.00000455,0.00000226,-
 0.00000234,0.00000374,-0.00000465,0.00001520,-0.00001064,0.00000644,-0
 .00001406,0.00000349,0.00000172,0.00000010,0.00000323,0.00000324,-0.00
 000232,-0.00000678,0.00000757,0.00000656,-0.00000133,-0.00000165,-0.00
 000242,-0.00000186,0.00000307,0.00000154,0.00000403,0.00000022,-0.0000
 0210,0.00013916,-0.00016430,0.00017819,-0.00148548,0.00003745,-0.00169
 491,-0.00011138,0.00010510,0.00010837,-0.00000744,0.00000684,0.0000019
 0,0.00000842,-0.00001880,-0.00000601,0.00002315,-0.00002508,-0.0000068
 4,0.00214604,-0.00245409,0.00026524,0.00157362,-0.02370094,-0.01375900
 ,0.00037971,0.00166610,-0.00306600,-0.00233120,-0.11223873,-0.11298868
 ,-0.00062063,0.00077483,0.00033257,-0.00037443,-0.00056541,-0.00022677
 ,0.00162763,0.00059758,0.00085133,0.00108699,0.01699301,0.01097039,-0.
 00081660,0.12350520,0.12209834,0.00101126,0.00019545,-0.00029686,0.000
 50840,-0.00009215,-0.00004962,-0.00003749,0.00013511,-0.00011255,-0.00
 002999,-0.00008679,0.00007918,0.00000850,0.00004671,-0.00002432,-0.000
 01877,-0.00003175,0.00005219,0.00000913,0.00001332,-0.00000049,-0.0000
 1675,-0.00000809,-0.00001237,-0.00005983,-0.00001301,0.00000921,-0.000
 00232,-0.00005664,-0.00002178,-0.00000397,0.00003580,0.00008790,0.0000
 4790,0.00003141,-0.00001965,-0.00000085,0.00007324,-0.00005431,0.00003
 506,-0.00000364,0.00003245,-0.00000692,-0.00004945,0.00000877,-0.00000
 244,-0.00001595,0.00000272,0.00000088,0.00000271,-0.00000018,0.0000186
 7,0.00000526,-0.00000887,0.00000238,-0.00000204,0.00000333,-0.00001243
 ,-0.00000138,0.00000246,-0.00000405,0.00000582,0.00000093,-0.00001047,
 0.00001285,-0.00000008,-0.00000444,0.00000184,0.00000152,0.00002737,0.
 00006195,-0.00002588,0.00021202,-0.00102897,-0.00028032,0.00001060,-0.
 00003090,-0.00001777,-0.00000466,-0.00000838,-0.00000378,-0.00000103,0
 .00001240,-0.00000311,0.,-0.00000151,0.00000199,-0.00214909,0.00229911
 ,-0.00046203,-0.01687929,-0.00164091,-0.00005145,0.00002915,-0.0019034
 8,0.00242142,-0.27799546,-0.05760941,-0.05210940,0.00076366,-0.0005608
 2,0.00016081,-0.00038123,-0.00069317,-0.00038236,0.00038609,0.00129679
 ,0.00069859,-0.01060892,-0.00311059,-0.00228353,0.00043299,-0.00007914
 ,-0.00060866,0.30472635,0.00039127,0.00002206,0.00012488,0.00036987,-0
 .00020414,0.00010912,-0.00004114,0.00008582,-0.00010684,-0.00001528,-0
 .00018833,0.00013396,-0.00005778,0.00017298,-0.00007829,0.00002157,0.0
 0004510,0.00002931,-0.00002049,-0.00000089,-0.00002244,0.00000298,-0.0
 0000283,0.00000483,0.00000959,-0.00009610,-0.00004390,-0.00001965,0.00
 015538,-0.00008427,0.00001462,0.00002787,-0.00000168,0.00003226,-0.000
 04464,-0.00000870,-0.00004102,-0.00006054,0.00001939,-0.00003374,0.000
 03917,-0.00001440,-0.00002563,0.00000731,0.00002761,-0.00000107,-0.000
 01605,-0.00001314,0.00000887,-0.00000453,0.00001048,0.00002530,-0.0000
 0308,-0.00001360,-0.00000571,-0.00000440,0.00000528,-0.00000494,-0.000
 01249,-0.00000186,-0.00000161,0.00000405,0.00000302,-0.00000703,0.0000
 1140,-0.00000382,-0.00000526,0.00000115,0.00000326,0.00002975,0.000145
 58,-0.00004252,-0.00028663,-0.00202615,0.00092906,0.00007088,-0.000086
 38,-0.00006136,-0.00000800,-0.00002039,-0.00000690,-0.00000980,0.00003
 162,-0.00000527,-0.00000720,0.00001197,0.00000792,-0.00130584,0.000799
 40,0.00019304,0.00050493,-0.00036732,-0.00077351,0.00035712,0.00005895
 ,-0.00017626,-0.05788143,-0.06139693,-0.01083064,0.00050059,-0.0002078
 1,-0.00023934,0.00017797,0.00040307,0.00013462,-0.00020061,-0.00020782
 ,-0.00041400,0.02295758,0.00655379,0.00408055,-0.02829366,-0.00649932,
 -0.00603839,0.06279837,0.06287348,-0.00078370,0.00047901,-0.00016367,-
 0.00000568,0.00015784,-0.00006612,-0.00001879,-0.00002372,0.00000829,-
 0.00007947,0.00003327,0.00013382,0.00002329,-0.00002608,-0.00004754,-0
 .00002014,-0.00004826,-0.00002114,-0.00000047,-0.00001117,0.00002588,0
 .00000613,0.00000274,-0.00000568,0.00006592,0.00022929,-0.00000656,0.0
 0007196,-0.00014570,0.00026526,-0.00000548,-0.00005787,-0.00019116,-0.
 00002429,-0.00004856,-0.00000550,-0.00011533,-0.00002555,0.00002789,-0
 .00001738,-0.00000784,0.00001495,0.00010785,-0.00002117,-0.00003342,-0
 .00001712,0.00004376,-0.00001023,-0.00000216,-0.00000067,0.00000227,-0
 .00006991,0.00000555,0.00000800,0.00001099,0.00001071,0.00000165,0.000
 05142,0.00001662,-0.00002024,0.00000726,-0.00000594,0.00000097,0.00003
 252,-0.00006446,-0.00000349,0.00000822,-0.00000386,0.00000055,0.000050
 34,0.00000571,-0.00011862,-0.00008150,0.00097435,0.00018869,-0.0000156
 2,0.00000648,0.00005583,-0.00000264,-0.00001398,-0.00001756,0.00000328
 ,0.00000026,-0.00001080,0.00000557,-0.00000265,0.00000162,0.00085686,-
 0.00074126,0.00058019,0.02928680,0.00591106,0.00709062,0.00085448,0.00
 116654,-0.00311166,-0.04972488,-0.01076850,-0.05791814,-0.00050531,-0.
 00004820,-0.00005340,0.00059996,0.00044506,0.00045234,-0.00059026,-0.0
 0195259,-0.00092779,-0.01739459,-0.00593803,-0.00408801,-0.01583399,-0
 .00269701,-0.00378444,0.05326590,0.01316482,0.06174636||-0.00000106,0.
 00000143,0.00000064,-0.00000004,-0.00000038,-0.00000006,-0.00000006,0.
 00000109,0.00000134,0.00000042,0.00000166,-0.00000047,-0.00000010,-0.0
 0000009,0.00000246,-0.00000014,0.00000040,0.00000165,0.00000048,0.0000
 0168,0.00000027,0.00000065,0.00000166,-0.00000021,-0.00000101,0.000002
 60,-0.00000026,0.00000037,-0.00000042,-0.00000139,0.00000037,0.0000009
 5,-0.00000129,0.00000176,-0.00000103,-0.00000056,0.00000095,0.00000030
 ,-0.00000143,-0.00000002,0.00000017,-0.00000222,-0.00000019,0.00000050
 ,-0.00000034,-0.00000045,0.00000108,0.00000031,0.00000027,0.00000072,0
 .00000104,-0.00000008,0.00000006,-0.00000141,0.00000008,-0.00000019,-0
 .00000165,0.00000066,0.00000057,-0.00000012,-0.00000011,0.00000013,0.0
 0000084,-0.00000003,-0.00000041,-0.00000036,0.,-0.00000024,-0.00000066
 ,-0.00000005,-0.00000116,0.00000270,-0.00000023,-0.00000087,0.00000015
 ,-0.00000101,-0.00000124,0.00000136,-0.00000060,-0.00000172,0.00000121
 ,-0.00000051,-0.00000097,0.00000202,-0.00000034,-0.00000063,0.00000141
 ,0.00000135,-0.00000027,-0.00000122,-0.00000003,-0.00000080,-0.0000004
 4,-0.00000040,0.,-0.00000041,0.00000072,-0.00000034,0.00000036,-0.0000
 0030,0.00000094,0.00000083,0.00000010,-0.00000056,-0.00000119,0.000000
 40,0.00000019,-0.00000031,-0.00000057,-0.00000178,-0.00000124,-0.00000
 058,-0.00000172,-0.00000041,-0.00000065,-0.00000131,-0.00000097|||@


 When I told the people of Northern Ireland that I was
 an atheist, a woman in the audience stood up and said,
 "Yes, but is it the God of the Catholics or the God
 of the Protestants in whom you don't believe?"
                               -- Quentin Crisp
 Job cpu time:       0 days  0 hours 31 minutes 15.0 seconds.
 File lengths (MBytes):  RWF=    645 Int=      0 D2E=      0 Chk=     14 Scr=      1
 Normal termination of Gaussian 09 at Thu Feb 08 16:48:34 2024.
