 Entering Link 1 = C:\G09W\l1.exe PID=     44564.
  
 Copyright (c) 1988,1990,1992,1993,1995,1998,2003,2009,2013,
            Gaussian, Inc.  All Rights Reserved.
  
 This is part of the Gaussian(R) 09 program.  It is based on
 the Gaussian(R) 03 system (copyright 2003, Gaussian, Inc.),
 the Gaussian(R) 98 system (copyright 1998, Gaussian, Inc.),
 the Gaussian(R) 94 system (copyright 1995, Gaussian, Inc.),
 the Gaussian 92(TM) system (copyright 1992, Gaussian, Inc.),
 the Gaussian 90(TM) system (copyright 1990, Gaussian, Inc.),
 the Gaussian 88(TM) system (copyright 1988, Gaussian, Inc.),
 the Gaussian 86(TM) system (copyright 1986, Carnegie Mellon
 University), and the Gaussian 82(TM) system (copyright 1983,
 Carnegie Mellon University). Gaussian is a federally registered
 trademark of Gaussian, Inc.
  
 This software contains proprietary and confidential information,
 including trade secrets, belonging to Gaussian, Inc.
  
 This software is provided under written license and may be
 used, copied, transmitted, or stored only in accord with that
 written license.
  
 The following legend is applicable only to US Government
 contracts under FAR:
  
                    RESTRICTED RIGHTS LEGEND
  
 Use, reproduction and disclosure by the US Government is
 subject to restrictions as set forth in subparagraphs (a)
 and (c) of the Commercial Computer Software - Restricted
 Rights clause in FAR 52.227-19.
  
 Gaussian, Inc.
 340 Quinnipiac St., Bldg. 40, Wallingford CT 06492
  
  
 ---------------------------------------------------------------
 Warning -- This program may not be used in any manner that
 competes with the business of Gaussian, Inc. or will provide
 assistance to any competitor of Gaussian, Inc.  The licensee
 of this program is prohibited from giving any competitor of
 Gaussian, Inc. access to this program.  By using this program,
 the user acknowledges that Gaussian, Inc. is engaged in the
 business of creating and licensing software in the field of
 computational chemistry and represents and warrants to the
 licensee that it is not a competitor of Gaussian, Inc. and that
 it will not use this program in any manner prohibited above.
 ---------------------------------------------------------------
  

 Cite this work as:
 Gaussian 09, Revision D.01,
 M. J. Frisch, G. W. Trucks, H. B. Schlegel, G. E. Scuseria, 
 M. A. Robb, J. R. Cheeseman, G. Scalmani, V. Barone, B. Mennucci, 
 G. A. Petersson, H. Nakatsuji, M. Caricato, X. Li, H. P. Hratchian, 
 A. F. Izmaylov, J. Bloino, G. Zheng, J. L. Sonnenberg, M. Hada, 
 M. Ehara, K. Toyota, R. Fukuda, J. Hasegawa, M. Ishida, T. Nakajima, 
 Y. Honda, O. Kitao, H. Nakai, T. Vreven, J. A. Montgomery, Jr., 
 J. E. Peralta, F. Ogliaro, M. Bearpark, J. J. Heyd, E. Brothers, 
 K. N. Kudin, V. N. Staroverov, T. Keith, R. Kobayashi, J. Normand, 
 K. Raghavachari, A. Rendell, J. C. Burant, S. S. Iyengar, J. Tomasi, 
 M. Cossi, N. Rega, J. M. Millam, M. Klene, J. E. Knox, J. B. Cross, 
 V. Bakken, C. Adamo, J. Jaramillo, R. Gomperts, R. E. Stratmann, 
 O. Yazyev, A. J. Austin, R. Cammi, C. Pomelli, J. W. Ochterski, 
 R. L. Martin, K. Morokuma, V. G. Zakrzewski, G. A. Voth, 
 P. Salvador, J. J. Dannenberg, S. Dapprich, A. D. Daniels, 
 O. Farkas, J. B. Foresman, J. V. Ortiz, J. Cioslowski, 
 and D. J. Fox, Gaussian, Inc., Wallingford CT, 2013.
 
 ******************************************
 Gaussian 09:  IA32W-G09RevD.01 24-Apr-2013
                08-Feb-2024 
 ******************************************
 %nprocshared=8
 Will use up to    8 processors via shared memory.
 %chk=D:\backups\Depo1\ChemChem\3\out\MATrp\MATrp_D8\MATrp_D8.chk
 ---------------------------------------------------------------
 #p opt=tight freq b3lyp/6-31g(d,p) guess=save geom=connectivity
 ---------------------------------------------------------------
 1/7=10,14=-1,18=20,19=15,26=3,38=1,57=2/1,3;
 2/9=110,12=2,17=6,18=5,40=1/2;
 3/5=1,6=6,7=101,11=2,16=1,25=1,30=1,71=1,74=-5/1,2,3;
 4//1;
 5/5=2,38=5/2;
 6/7=2,8=2,9=2,10=2,28=1/1;
 7//1,2,3,16;
 1/7=10,14=-1,18=20,19=15,26=3/3(2);
 2/9=110/2;
 99//99;
 2/9=110/2;
 3/5=1,6=6,7=101,11=2,16=1,25=1,30=1,71=1,74=-5/1,2,3;
 4/5=5,16=3,69=1/1;
 5/5=2,38=5/2;
 7//1,2,3,16;
 1/7=10,14=-1,18=20,19=15,26=3/3(-5);
 2/9=110/2;
 6/7=2,8=2,9=2,10=2,19=2,28=1/1;
 99/9=1/99;
 Leave Link    1 at Thu Feb 08 10:20:53 2024, MaxMem=           0 cpu:         1.0
 (Enter C:\G09W\l101.exe)
 --------------------------------
 MATrp OptFreq tight B3LYP/6-31Gd
 --------------------------------
 Symbolic Z-matrix:
 Charge =  0 Multiplicity = 1
 N                     1.89042   0.43519   0.00468 
 C                     1.02163   1.1257   -0.92808 
 H                     0.51217   0.36617  -1.52845 
 C                     1.79741   2.01124  -1.89231 
 O                     1.30023   2.51168  -2.87788 
 C                    -0.09477   1.95777  -0.21657 
 H                    -0.71555   2.40845  -0.99909 
 H                    -0.71576   1.22724   0.31097 
 C                     0.4055    3.00113   0.7388 
 C                     0.58297   2.83243   2.09067 
 H                     0.37936   1.96562   2.70511 
 C                     0.81119   4.35828   0.44511 
 N                     1.0814    3.9914    2.65506 
 H                     1.2432    4.136     3.63933 
 C                     1.22365   4.94964   1.67218 
 C                     0.85046   5.13934  -0.72572 
 H                     0.54214   4.71964  -1.67872 
 C                     1.6717    6.27221   1.75576 
 H                     1.98114   6.70481   2.70394 
 C                     1.29486   6.45399  -0.64625 
 H                     1.32371   7.06466  -1.54469 
 C                     1.70278   7.01504   0.58153 
 H                     2.04322   8.04651   0.61165 
 O                     3.07437   2.21823  -1.50781 
 H                     2.11325  -0.52724  -0.1965 
 C                     3.82886   3.1349   -2.32364 
 H                     4.84458   3.10841  -1.92853 
 H                     3.80964   2.81895  -3.36892 
 H                     3.40832   4.13979  -2.23645 
 C                     2.4605    1.08927   1.06144 
 C                     3.35939   0.25387   1.94198 
 C                     3.93268   0.86923   2.98177 
 C                     3.57773  -1.20834   1.63419 
 O                     2.24395   2.28167   1.27456 
 H                     4.59069   0.34077   3.66609 
 H                     3.74279   1.92195   3.1627 
 H                     4.24815  -1.66317   2.36896 
 H                     2.63604  -1.773     1.65085 
 H                     4.02781  -1.35433   0.6425 
 
 NAtoms=     39 NQM=       39 NQMF=       0 NMMI=      0 NMMIF=      0
                NMic=       0 NMicF=      0.
                    Isotopes and Nuclear Properties:
 (Nuclear quadrupole moments (NQMom) in fm**2, nuclear magnetic moments (NMagM)
  in nuclear magnetons)

  Atom         1           2           3           4           5           6           7           8           9          10
 IAtWgt=          14          12           1          12          16          12           1           1          12          12
 AtmWgt=  14.0030740  12.0000000   1.0078250  12.0000000  15.9949146  12.0000000   1.0078250   1.0078250  12.0000000  12.0000000
 NucSpn=           2           0           1           0           0           0           1           1           0           0
 AtZEff=   0.0000000   0.0000000   0.0000000   0.0000000   0.0000000   0.0000000   0.0000000   0.0000000   0.0000000   0.0000000
 NQMom=    2.0440000   0.0000000   0.0000000   0.0000000   0.0000000   0.0000000   0.0000000   0.0000000   0.0000000   0.0000000
 NMagM=    0.4037610   0.0000000   2.7928460   0.0000000   0.0000000   0.0000000   2.7928460   2.7928460   0.0000000   0.0000000
 AtZNuc=   7.0000000   6.0000000   1.0000000   6.0000000   8.0000000   6.0000000   1.0000000   1.0000000   6.0000000   6.0000000

  Atom        11          12          13          14          15          16          17          18          19          20
 IAtWgt=           1          12          14           1          12          12           1          12           1          12
 AtmWgt=   1.0078250  12.0000000  14.0030740   1.0078250  12.0000000  12.0000000   1.0078250  12.0000000   1.0078250  12.0000000
 NucSpn=           1           0           2           1           0           0           1           0           1           0
 AtZEff=   0.0000000   0.0000000   0.0000000   0.0000000   0.0000000   0.0000000   0.0000000   0.0000000   0.0000000   0.0000000
 NQMom=    0.0000000   0.0000000   2.0440000   0.0000000   0.0000000   0.0000000   0.0000000   0.0000000   0.0000000   0.0000000
 NMagM=    2.7928460   0.0000000   0.4037610   2.7928460   0.0000000   0.0000000   2.7928460   0.0000000   2.7928460   0.0000000
 AtZNuc=   1.0000000   6.0000000   7.0000000   1.0000000   6.0000000   6.0000000   1.0000000   6.0000000   1.0000000   6.0000000

  Atom        21          22          23          24          25          26          27          28          29          30
 IAtWgt=           1          12           1          16           1          12           1           1           1          12
 AtmWgt=   1.0078250  12.0000000   1.0078250  15.9949146   1.0078250  12.0000000   1.0078250   1.0078250   1.0078250  12.0000000
 NucSpn=           1           0           1           0           1           0           1           1           1           0
 AtZEff=   0.0000000   0.0000000   0.0000000   0.0000000   0.0000000   0.0000000   0.0000000   0.0000000   0.0000000   0.0000000
 NQMom=    0.0000000   0.0000000   0.0000000   0.0000000   0.0000000   0.0000000   0.0000000   0.0000000   0.0000000   0.0000000
 NMagM=    2.7928460   0.0000000   2.7928460   0.0000000   2.7928460   0.0000000   2.7928460   2.7928460   2.7928460   0.0000000
 AtZNuc=   1.0000000   6.0000000   1.0000000   8.0000000   1.0000000   6.0000000   1.0000000   1.0000000   1.0000000   6.0000000

  Atom        31          32          33          34          35          36          37          38          39
 IAtWgt=          12          12          12          16           1           1           1           1           1
 AtmWgt=  12.0000000  12.0000000  12.0000000  15.9949146   1.0078250   1.0078250   1.0078250   1.0078250   1.0078250
 NucSpn=           0           0           0           0           1           1           1           1           1
 AtZEff=   0.0000000   0.0000000   0.0000000   0.0000000   0.0000000   0.0000000   0.0000000   0.0000000   0.0000000
 NQMom=    0.0000000   0.0000000   0.0000000   0.0000000   0.0000000   0.0000000   0.0000000   0.0000000   0.0000000
 NMagM=    0.0000000   0.0000000   0.0000000   0.0000000   2.7928460   2.7928460   2.7928460   2.7928460   2.7928460
 AtZNuc=   6.0000000   6.0000000   6.0000000   8.0000000   1.0000000   1.0000000   1.0000000   1.0000000   1.0000000
 Leave Link  101 at Thu Feb 08 10:20:53 2024, MaxMem=    33554432 cpu:         0.0
 (Enter C:\G09W\l103.exe)

 GradGradGradGradGradGradGradGradGradGradGradGradGradGradGradGradGradGrad
 Berny optimization.
 Initialization pass.
                           ----------------------------
                           !    Initial Parameters    !
                           ! (Angstroms and Degrees)  !
 --------------------------                            --------------------------
 ! Name  Definition              Value          Derivative Info.                !
 --------------------------------------------------------------------------------
 ! R1    R(1,2)                  1.4497         estimate D2E/DX2                !
 ! R2    R(1,25)                 1.0082         estimate D2E/DX2                !
 ! R3    R(1,30)                 1.3673         estimate D2E/DX2                !
 ! R4    R(2,3)                  1.094          estimate D2E/DX2                !
 ! R5    R(2,4)                  1.5218         estimate D2E/DX2                !
 ! R6    R(2,6)                  1.5636         estimate D2E/DX2                !
 ! R7    R(4,5)                  1.212          estimate D2E/DX2                !
 ! R8    R(4,24)                 1.3496         estimate D2E/DX2                !
 ! R9    R(6,7)                  1.0958         estimate D2E/DX2                !
 ! R10   R(6,8)                  1.0944         estimate D2E/DX2                !
 ! R11   R(6,9)                  1.5005         estimate D2E/DX2                !
 ! R12   R(9,10)                 1.3739         estimate D2E/DX2                !
 ! R13   R(9,12)                 1.4466         estimate D2E/DX2                !
 ! R14   R(10,11)                1.0818         estimate D2E/DX2                !
 ! R15   R(10,13)                1.3821         estimate D2E/DX2                !
 ! R16   R(12,15)                1.4232         estimate D2E/DX2                !
 ! R17   R(12,16)                1.408          estimate D2E/DX2                !
 ! R18   R(13,14)                1.0079         estimate D2E/DX2                !
 ! R19   R(13,15)                1.38           estimate D2E/DX2                !
 ! R20   R(15,18)                1.3989         estimate D2E/DX2                !
 ! R21   R(16,17)                1.086          estimate D2E/DX2                !
 ! R22   R(16,20)                1.39           estimate D2E/DX2                !
 ! R23   R(18,19)                1.0872         estimate D2E/DX2                !
 ! R24   R(18,22)                1.3898         estimate D2E/DX2                !
 ! R25   R(20,21)                1.0867         estimate D2E/DX2                !
 ! R26   R(20,22)                1.4102         estimate D2E/DX2                !
 ! R27   R(22,23)                1.0866         estimate D2E/DX2                !
 ! R28   R(24,26)                1.4405         estimate D2E/DX2                !
 ! R29   R(26,27)                1.0902         estimate D2E/DX2                !
 ! R30   R(26,28)                1.0922         estimate D2E/DX2                !
 ! R31   R(26,29)                1.0928         estimate D2E/DX2                !
 ! R32   R(30,31)                1.5104         estimate D2E/DX2                !
 ! R33   R(30,34)                1.2305         estimate D2E/DX2                !
 ! R34   R(31,32)                1.3373         estimate D2E/DX2                !
 ! R35   R(31,33)                1.5101         estimate D2E/DX2                !
 ! R36   R(32,35)                1.0865         estimate D2E/DX2                !
 ! R37   R(32,36)                1.0849         estimate D2E/DX2                !
 ! R38   R(33,37)                1.0937         estimate D2E/DX2                !
 ! R39   R(33,38)                1.0981         estimate D2E/DX2                !
 ! R40   R(33,39)                1.0988         estimate D2E/DX2                !
 ! A1    A(2,1,25)             117.308          estimate D2E/DX2                !
 ! A2    A(2,1,30)             121.2844         estimate D2E/DX2                !
 ! A3    A(25,1,30)            121.2475         estimate D2E/DX2                !
 ! A4    A(1,2,3)              107.5463         estimate D2E/DX2                !
 ! A5    A(1,2,4)              112.2934         estimate D2E/DX2                !
 ! A6    A(1,2,6)              112.8654         estimate D2E/DX2                !
 ! A7    A(3,2,4)              107.0783         estimate D2E/DX2                !
 ! A8    A(3,2,6)              106.6588         estimate D2E/DX2                !
 ! A9    A(4,2,6)              110.0381         estimate D2E/DX2                !
 ! A10   A(2,4,5)              123.1202         estimate D2E/DX2                !
 ! A11   A(2,4,24)             113.0226         estimate D2E/DX2                !
 ! A12   A(5,4,24)             123.8134         estimate D2E/DX2                !
 ! A13   A(2,6,7)              107.3605         estimate D2E/DX2                !
 ! A14   A(2,6,8)              105.6208         estimate D2E/DX2                !
 ! A15   A(2,6,9)              114.9414         estimate D2E/DX2                !
 ! A16   A(7,6,8)              107.2966         estimate D2E/DX2                !
 ! A17   A(7,6,9)              110.9504         estimate D2E/DX2                !
 ! A18   A(8,6,9)              110.2691         estimate D2E/DX2                !
 ! A19   A(6,9,10)             125.7452         estimate D2E/DX2                !
 ! A20   A(6,9,12)             128.0651         estimate D2E/DX2                !
 ! A21   A(10,9,12)            106.1853         estimate D2E/DX2                !
 ! A22   A(9,10,11)            129.2678         estimate D2E/DX2                !
 ! A23   A(9,10,13)            110.2085         estimate D2E/DX2                !
 ! A24   A(11,10,13)           120.5198         estimate D2E/DX2                !
 ! A25   A(9,12,15)            107.2204         estimate D2E/DX2                !
 ! A26   A(9,12,16)            134.1927         estimate D2E/DX2                !
 ! A27   A(15,12,16)           118.5792         estimate D2E/DX2                !
 ! A28   A(10,13,14)           125.2381         estimate D2E/DX2                !
 ! A29   A(10,13,15)           109.1835         estimate D2E/DX2                !
 ! A30   A(14,13,15)           125.4048         estimate D2E/DX2                !
 ! A31   A(12,15,13)           107.1977         estimate D2E/DX2                !
 ! A32   A(12,15,18)           122.4915         estimate D2E/DX2                !
 ! A33   A(13,15,18)           130.3106         estimate D2E/DX2                !
 ! A34   A(12,16,17)           120.4915         estimate D2E/DX2                !
 ! A35   A(12,16,20)           119.0802         estimate D2E/DX2                !
 ! A36   A(17,16,20)           120.4278         estimate D2E/DX2                !
 ! A37   A(15,18,19)           121.2967         estimate D2E/DX2                !
 ! A38   A(15,18,22)           117.5164         estimate D2E/DX2                !
 ! A39   A(19,18,22)           121.1866         estimate D2E/DX2                !
 ! A40   A(16,20,21)           119.5178         estimate D2E/DX2                !
 ! A41   A(16,20,22)           121.2351         estimate D2E/DX2                !
 ! A42   A(21,20,22)           119.2461         estimate D2E/DX2                !
 ! A43   A(18,22,20)           121.0968         estimate D2E/DX2                !
 ! A44   A(18,22,23)           119.4026         estimate D2E/DX2                !
 ! A45   A(20,22,23)           119.5002         estimate D2E/DX2                !
 ! A46   A(4,24,26)            115.5837         estimate D2E/DX2                !
 ! A47   A(24,26,27)           105.5016         estimate D2E/DX2                !
 ! A48   A(24,26,28)           110.4092         estimate D2E/DX2                !
 ! A49   A(24,26,29)           109.7796         estimate D2E/DX2                !
 ! A50   A(27,26,28)           110.8694         estimate D2E/DX2                !
 ! A51   A(27,26,29)           110.6077         estimate D2E/DX2                !
 ! A52   A(28,26,29)           109.6091         estimate D2E/DX2                !
 ! A53   A(1,30,31)            115.7299         estimate D2E/DX2                !
 ! A54   A(1,30,34)            121.6036         estimate D2E/DX2                !
 ! A55   A(31,30,34)           122.6661         estimate D2E/DX2                !
 ! A56   A(30,31,32)           116.994          estimate D2E/DX2                !
 ! A57   A(30,31,33)           120.1837         estimate D2E/DX2                !
 ! A58   A(32,31,33)           122.8222         estimate D2E/DX2                !
 ! A59   A(31,32,35)           121.7021         estimate D2E/DX2                !
 ! A60   A(31,32,36)           120.0743         estimate D2E/DX2                !
 ! A61   A(35,32,36)           118.2232         estimate D2E/DX2                !
 ! A62   A(31,33,37)           110.7538         estimate D2E/DX2                !
 ! A63   A(31,33,38)           111.7655         estimate D2E/DX2                !
 ! A64   A(31,33,39)           111.8284         estimate D2E/DX2                !
 ! A65   A(37,33,38)           107.555          estimate D2E/DX2                !
 ! A66   A(37,33,39)           107.4571         estimate D2E/DX2                !
 ! A67   A(38,33,39)           107.256          estimate D2E/DX2                !
 ! D1    D(25,1,2,3)            17.5785         estimate D2E/DX2                !
 ! D2    D(25,1,2,4)           -99.9718         estimate D2E/DX2                !
 ! D3    D(25,1,2,6)           134.9422         estimate D2E/DX2                !
 ! D4    D(30,1,2,3)          -166.9658         estimate D2E/DX2                !
 ! D5    D(30,1,2,4)            75.4839         estimate D2E/DX2                !
 ! D6    D(30,1,2,6)           -49.602          estimate D2E/DX2                !
 ! D7    D(2,1,30,31)         -179.1405         estimate D2E/DX2                !
 ! D8    D(2,1,30,34)            1.112          estimate D2E/DX2                !
 ! D9    D(25,1,30,31)          -3.8639         estimate D2E/DX2                !
 ! D10   D(25,1,30,34)         176.3886         estimate D2E/DX2                !
 ! D11   D(1,2,4,5)            168.1583         estimate D2E/DX2                !
 ! D12   D(1,2,4,24)           -14.165          estimate D2E/DX2                !
 ! D13   D(3,2,4,5)             50.33           estimate D2E/DX2                !
 ! D14   D(3,2,4,24)          -131.9933         estimate D2E/DX2                !
 ! D15   D(6,2,4,5)            -65.2183         estimate D2E/DX2                !
 ! D16   D(6,2,4,24)           112.4584         estimate D2E/DX2                !
 ! D17   D(1,2,6,7)           -177.9941         estimate D2E/DX2                !
 ! D18   D(1,2,6,8)            -63.735          estimate D2E/DX2                !
 ! D19   D(1,2,6,9)             58.0506         estimate D2E/DX2                !
 ! D20   D(3,2,6,7)            -60.1085         estimate D2E/DX2                !
 ! D21   D(3,2,6,8)             54.1506         estimate D2E/DX2                !
 ! D22   D(3,2,6,9)            175.9362         estimate D2E/DX2                !
 ! D23   D(4,2,6,7)             55.7043         estimate D2E/DX2                !
 ! D24   D(4,2,6,8)            169.9634         estimate D2E/DX2                !
 ! D25   D(4,2,6,9)            -68.251          estimate D2E/DX2                !
 ! D26   D(2,4,24,26)         -175.2559         estimate D2E/DX2                !
 ! D27   D(5,4,24,26)            2.4021         estimate D2E/DX2                !
 ! D28   D(2,6,9,10)           -93.415          estimate D2E/DX2                !
 ! D29   D(2,6,9,12)            85.7122         estimate D2E/DX2                !
 ! D30   D(7,6,9,10)           144.5507         estimate D2E/DX2                !
 ! D31   D(7,6,9,12)           -36.3221         estimate D2E/DX2                !
 ! D32   D(8,6,9,10)            25.8148         estimate D2E/DX2                !
 ! D33   D(8,6,9,12)          -155.058          estimate D2E/DX2                !
 ! D34   D(6,9,10,11)           -1.8966         estimate D2E/DX2                !
 ! D35   D(6,9,10,13)          178.8406         estimate D2E/DX2                !
 ! D36   D(12,9,10,11)         178.8189         estimate D2E/DX2                !
 ! D37   D(12,9,10,13)          -0.4439         estimate D2E/DX2                !
 ! D38   D(6,9,12,15)         -179.2265         estimate D2E/DX2                !
 ! D39   D(6,9,12,16)            1.8333         estimate D2E/DX2                !
 ! D40   D(10,9,12,15)           0.0359         estimate D2E/DX2                !
 ! D41   D(10,9,12,16)        -178.9043         estimate D2E/DX2                !
 ! D42   D(9,10,13,14)         176.1204         estimate D2E/DX2                !
 ! D43   D(9,10,13,15)           0.7026         estimate D2E/DX2                !
 ! D44   D(11,10,13,14)         -3.2171         estimate D2E/DX2                !
 ! D45   D(11,10,13,15)       -178.6349         estimate D2E/DX2                !
 ! D46   D(9,12,15,13)           0.3785         estimate D2E/DX2                !
 ! D47   D(9,12,15,18)        -179.4726         estimate D2E/DX2                !
 ! D48   D(16,12,15,13)        179.5131         estimate D2E/DX2                !
 ! D49   D(16,12,15,18)         -0.3379         estimate D2E/DX2                !
 ! D50   D(9,12,16,17)          -1.1117         estimate D2E/DX2                !
 ! D51   D(9,12,16,20)         179.1598         estimate D2E/DX2                !
 ! D52   D(15,12,16,17)       -179.9589         estimate D2E/DX2                !
 ! D53   D(15,12,16,20)          0.3126         estimate D2E/DX2                !
 ! D54   D(10,13,15,12)         -0.6562         estimate D2E/DX2                !
 ! D55   D(10,13,15,18)        179.1791         estimate D2E/DX2                !
 ! D56   D(14,13,15,12)       -176.0646         estimate D2E/DX2                !
 ! D57   D(14,13,15,18)          3.7707         estimate D2E/DX2                !
 ! D58   D(12,15,18,19)        179.9252         estimate D2E/DX2                !
 ! D59   D(12,15,18,22)          0.1236         estimate D2E/DX2                !
 ! D60   D(13,15,18,19)          0.1117         estimate D2E/DX2                !
 ! D61   D(13,15,18,22)       -179.6898         estimate D2E/DX2                !
 ! D62   D(12,16,20,21)       -179.717          estimate D2E/DX2                !
 ! D63   D(12,16,20,22)         -0.0908         estimate D2E/DX2                !
 ! D64   D(17,16,20,21)          0.5544         estimate D2E/DX2                !
 ! D65   D(17,16,20,22)       -179.8195         estimate D2E/DX2                !
 ! D66   D(15,18,22,20)          0.1108         estimate D2E/DX2                !
 ! D67   D(15,18,22,23)        179.8487         estimate D2E/DX2                !
 ! D68   D(19,18,22,20)       -179.691          estimate D2E/DX2                !
 ! D69   D(19,18,22,23)          0.0469         estimate D2E/DX2                !
 ! D70   D(16,20,22,18)         -0.1288         estimate D2E/DX2                !
 ! D71   D(16,20,22,23)       -179.8665         estimate D2E/DX2                !
 ! D72   D(21,20,22,18)        179.4983         estimate D2E/DX2                !
 ! D73   D(21,20,22,23)         -0.2393         estimate D2E/DX2                !
 ! D74   D(4,24,26,27)        -174.8917         estimate D2E/DX2                !
 ! D75   D(4,24,26,28)         -55.0473         estimate D2E/DX2                !
 ! D76   D(4,24,26,29)          65.9058         estimate D2E/DX2                !
 ! D77   D(1,30,31,32)         179.8603         estimate D2E/DX2                !
 ! D78   D(1,30,31,33)          -0.2099         estimate D2E/DX2                !
 ! D79   D(34,30,31,32)         -0.3952         estimate D2E/DX2                !
 ! D80   D(34,30,31,33)        179.5346         estimate D2E/DX2                !
 ! D81   D(30,31,32,35)        179.8175         estimate D2E/DX2                !
 ! D82   D(30,31,32,36)          0.0704         estimate D2E/DX2                !
 ! D83   D(33,31,32,35)         -0.1103         estimate D2E/DX2                !
 ! D84   D(33,31,32,36)       -179.8574         estimate D2E/DX2                !
 ! D85   D(30,31,33,37)       -179.7323         estimate D2E/DX2                !
 ! D86   D(30,31,33,38)        -59.824          estimate D2E/DX2                !
 ! D87   D(30,31,33,39)         60.4416         estimate D2E/DX2                !
 ! D88   D(32,31,33,37)          0.1933         estimate D2E/DX2                !
 ! D89   D(32,31,33,38)        120.1016         estimate D2E/DX2                !
 ! D90   D(32,31,33,39)       -119.6328         estimate D2E/DX2                !
 --------------------------------------------------------------------------------
 Trust Radius=3.00D-01 FncErr=1.00D-07 GrdErr=1.00D-06
 Number of steps in this run=    207 maximum allowed number of steps=    234.
 GradGradGradGradGradGradGradGradGradGradGradGradGradGradGradGradGradGrad

 Leave Link  103 at Thu Feb 08 10:20:53 2024, MaxMem=    33554432 cpu:         0.0
 (Enter C:\G09W\l202.exe)
                          Input orientation:                          
 ---------------------------------------------------------------------
 Center     Atomic      Atomic             Coordinates (Angstroms)
 Number     Number       Type             X           Y           Z
 ---------------------------------------------------------------------
      1          7           0        1.890419    0.435187    0.004676
      2          6           0        1.021634    1.125700   -0.928079
      3          1           0        0.512175    0.366171   -1.528446
      4          6           0        1.797414    2.011237   -1.892312
      5          8           0        1.300229    2.511685   -2.877879
      6          6           0       -0.094767    1.957772   -0.216567
      7          1           0       -0.715548    2.408450   -0.999086
      8          1           0       -0.715757    1.227235    0.310972
      9          6           0        0.405503    3.001126    0.738805
     10          6           0        0.582971    2.832427    2.090671
     11          1           0        0.379359    1.965624    2.705106
     12          6           0        0.811189    4.358277    0.445110
     13          7           0        1.081401    3.991401    2.655062
     14          1           0        1.243198    4.135997    3.639333
     15          6           0        1.223646    4.949643    1.672179
     16          6           0        0.850457    5.139343   -0.725724
     17          1           0        0.542141    4.719638   -1.678723
     18          6           0        1.671698    6.272211    1.755756
     19          1           0        1.981139    6.704810    2.703936
     20          6           0        1.294863    6.453986   -0.646250
     21          1           0        1.323705    7.064660   -1.544694
     22          6           0        1.702782    7.015036    0.581529
     23          1           0        2.043218    8.046511    0.611650
     24          8           0        3.074374    2.218229   -1.507814
     25          1           0        2.113251   -0.527243   -0.196502
     26          6           0        3.828861    3.134902   -2.323643
     27          1           0        4.844581    3.108411   -1.928534
     28          1           0        3.809636    2.818948   -3.368921
     29          1           0        3.408317    4.139786   -2.236454
     30          6           0        2.460504    1.089268    1.061439
     31          6           0        3.359390    0.253869    1.941985
     32          6           0        3.932680    0.869232    2.981766
     33          6           0        3.577728   -1.208340    1.634185
     34          8           0        2.243953    2.281668    1.274559
     35          1           0        4.590694    0.340775    3.666092
     36          1           0        3.742787    1.921955    3.162697
     37          1           0        4.248153   -1.663166    2.368955
     38          1           0        2.636044   -1.772999    1.650851
     39          1           0        4.027809   -1.354326    0.642500
 ---------------------------------------------------------------------
                    Distance matrix (angstroms):
                    1          2          3          4          5
     1  N    0.000000
     2  C    1.449699   0.000000
     3  H    2.062713   1.094017   0.000000
     4  C    2.468025   1.521761   2.119075   0.000000
     5  O    3.601290   2.408379   2.654285   1.212016   0.000000
     6  C    2.511609   1.563632   2.150023   2.528108   3.055391
     7  H    3.419411   2.160623   2.440990   2.696407   2.757513
     8  H    2.741042   2.136372   2.373333   3.432950   3.985320
     9  C    3.054172   2.583668   3.477757   3.136889   3.757724
    10  C    3.436212   3.495453   4.380118   4.244217   5.030290
    11  H    3.452226   3.783917   4.527566   4.811363   5.684708
    12  C    4.092598   3.518450   4.463323   3.456122   3.832925
    13  N    4.508405   4.588541   5.564895   5.011221   5.731569
    14  H    5.227392   5.474690   6.438317   5.951543   6.716821
    15  C    4.858546   4.628682   5.635461   4.655002   5.162609
    16  C    4.872790   4.022384   4.852007   3.470260   3.426172
    17  H    4.796687   3.702671   4.356164   2.992786   2.624449
    18  C    6.097948   5.840559   6.856514   5.610713   5.979140
    19  H    6.826596   6.725969   7.762040   6.571825   7.014456
    20  C    6.083119   5.342726   6.200997   4.641471   4.530114
    21  H    6.831663   5.978521   6.747489   5.087468   4.744209
    22  C    6.607751   6.117774   7.076507   5.582728   5.692954
    23  H    7.637017   7.163242   8.118604   6.538715   6.585070
    24  O    2.620804   2.396550   3.161552   1.349560   2.260705
    25  H    1.008166   2.111647   2.266210   3.069105   4.133506
    26  C    4.057965   3.723575   4.393018   2.361238   2.662621
    27  H    4.428375   4.421197   5.142927   3.238878   3.717495
    28  H    4.554873   4.074034   4.502967   2.623320   2.575394
    29  H    4.588107   4.061135   4.809271   2.691498   2.739740
    30  C    1.367321   2.455577   3.320597   3.164548   4.346002
    31  C    2.438015   3.802954   4.490338   4.497771   5.706922
    32  C    3.636247   4.881276   5.682864   5.442442   6.630451
    33  C    2.864174   4.306571   4.677493   5.096212   6.275692
    34  O    2.268717   2.771631   3.811170   3.209611   4.264535
    35  H    4.550425   5.870324   6.604407   6.441173   7.639605
    36  H    3.951562   4.977263   5.904587   5.417155   6.542356
    37  H    3.943579   5.390606   5.767623   6.137243   7.324541
    38  H    2.853408   4.202339   4.381187   5.251452   6.375917
    39  H    2.859652   4.201706   4.475801   4.767278   5.897355
                    6          7          8          9         10
     6  C    0.000000
     7  H    1.095817   0.000000
     8  H    1.094354   1.763950   0.000000
     9  C    1.500531   2.151345   2.141718   0.000000
    10  C    2.558846   3.378240   2.725924   1.373862   0.000000
    11  H    2.959904   3.887925   2.734297   2.222451   1.081820
    12  C    2.649717   2.866785   3.486113   1.446616   2.255699
    13  N    3.710158   4.368931   4.045386   2.260426   1.382097
    14  H    4.626314   5.323160   4.834914   3.225326   2.129214
    15  C    3.775827   4.165789   4.412538   2.310252   2.251268
    16  C    3.357839   3.159885   4.339626   2.629600   3.650409
    17  H    3.189272   2.717587   4.211659   2.969241   4.215633
    18  C    5.062098   5.311944   5.765339   3.652046   3.623481
    19  H    5.947528   6.280383   6.557694   4.479023   4.162490
    20  C    4.725636   4.531292   5.681355   3.825125   4.594912
    21  H    5.464091   5.112390   6.455884   4.750765   5.628176
    22  C    5.426238   5.437582   6.278628   4.221272   4.585379
    23  H    6.506125   6.480200   7.362396   5.306052   5.613065
    24  O    3.431998   3.828642   4.319160   3.575346   4.419663
    25  H    3.324311   4.155062   3.367344   4.029962   4.342844
    26  C    4.606545   4.788928   5.588733   4.595200   5.487573
    27  H    5.352753   5.680569   6.282641   5.179925   5.864426
    28  H    5.091495   5.124638   6.046019   5.338045   6.341821
    29  H    4.594858   4.640568   5.655114   4.377854   5.330645
    30  C    2.986137   4.009154   3.266630   2.825301   2.760987
    31  C    4.415182   5.467837   4.496051   4.209574   3.792040
    32  C    5.256861   6.310499   5.373014   4.692209   3.983558
    33  C    5.190065   6.200606   5.110473   5.346431   5.050222
    34  O    2.792486   3.734191   3.286368   2.045618   1.930864
    35  H    6.296290   7.361751   6.340431   5.758672   4.975151
    36  H    5.113466   6.118323   5.337939   4.263488   3.458705
    37  H    6.217481   7.249834   6.101649   6.259311   5.807009
    38  H    4.986305   5.978282   4.693746   5.347842   5.061472
    39  H    5.357576   6.273175   5.410710   5.665716   5.611863
                   11         12         13         14         15
    11  H    0.000000
    12  C    3.319466   0.000000
    13  N    2.144560   2.256436   0.000000
    14  H    2.515853   3.230960   1.007906   0.000000
    15  C    3.268659   1.423213   1.380044   2.128872   0.000000
    16  C    4.697341   1.407997   3.577823   4.496072   2.434172
    17  H    5.179677   2.171090   4.427508   5.395724   3.427229
    18  C    4.595443   2.474149   2.521765   2.880084   1.398900
    19  H    5.002558   3.460823   2.859110   2.831665   2.172309
    20  C    5.675837   2.411846   4.124143   4.872572   2.764640
    21  H    6.704682   3.398014   5.209758   5.954635   3.851179
    22  C    5.635387   2.805693   3.718605   4.224955   2.384310
    23  H    6.642904   3.892133   4.641610   5.009892   3.374465
    24  O    5.007556   3.676374   4.944251   5.790005   4.582377
    25  H    4.200011   5.096601   5.441900   6.100527   5.854882
    26  C    6.209234   4.274223   5.750620   6.576087   5.103629
    27  H    6.535656   4.844027   5.995877   6.710219   5.428300
    28  H    7.027714   5.089896   6.716121   7.578710   6.053090
    29  H    6.190362   3.739464   5.418808   6.261998   4.550392
    30  C    2.792993   3.713021   3.586633   4.172521   4.099429
    31  C    3.520376   5.057681   4.434733   4.736051   5.165703
    32  C    3.728902   5.324638   4.240809   4.282226   5.069875
    33  C    4.631467   6.328892   5.857572   6.167057   6.592716
    34  O    2.371300   2.655768   2.486062   3.167366   2.883959
    35  H    4.615081   6.387465   5.163757   5.060648   6.046020
    36  H    3.394694   4.681369   3.409292   3.372997   4.211248
    37  H    5.314949   7.195254   6.487241   6.653864   7.304956
    38  H    4.492370   6.509720   6.054227   6.388295   6.869443
    39  H    5.346737   6.558921   6.427170   6.846803   6.975929
                   16         17         18         19         20
    16  C    0.000000
    17  H    1.086010   0.000000
    18  C    2.848784   3.934721   0.000000
    19  H    3.935949   5.021884   1.087171   0.000000
    20  C    1.390000   2.154195   2.438171   3.428940   0.000000
    21  H    2.145116   2.475466   3.412043   4.314228   1.086718
    22  C    2.439998   3.424132   1.389807   2.162945   1.410183
    23  H    3.415096   4.308959   2.143629   2.486297   2.162980
    24  O    3.753715   3.563490   5.390098   6.250073   4.674462
    25  H    5.829658   5.674075   7.087937   7.793111   7.043408
    26  C    3.929633   3.705380   5.580103   6.436992   4.500124
    27  H    4.639447   4.601027   5.800931   6.526344   5.043573
    28  H    4.596462   4.140763   6.538969   7.437938   5.191390
    29  H    3.134337   2.976955   4.847764   5.746620   3.514394
    30  C    4.710553   4.936415   5.288401   5.870426   5.749359
    31  C    6.105675   6.402305   6.253273   6.640391   7.028704
    32  C    6.440452   6.931201   5.983922   6.159519   7.163104
    33  C    7.300702   7.438486   7.720517   8.143182   8.314031
    34  O    3.756230   4.190673   4.059983   4.655790   4.690258
    35  H    7.503577   8.008263   6.881268   6.945248   8.174971
    36  H    5.816956   6.442866   5.019325   5.117575   6.406225
    37  H    8.209476   8.417744   8.365665   8.676093   9.148855
    38  H    7.524420   7.591102   8.103479   8.568030   8.646313
    39  H    7.357671   7.377736   8.059445   8.566683   8.372551
                   21         22         23         24         25
    21  H    0.000000
    22  C    2.160320   0.000000
    23  H    2.476196   1.086621   0.000000
    24  O    5.153067   5.408879   6.286835   0.000000
    25  H    7.751000   7.593404   8.612043   3.190754   0.000000
    26  C    4.724994   5.292984   5.994029   1.440526   4.569393
    27  H    5.309972   5.606517   6.219727   2.025602   4.866013
    28  H    5.247259   6.136126   6.803867   2.089304   4.913141
    29  H    3.657735   4.372292   5.023714   2.082022   5.255450
    30  C    6.617368   5.993261   6.984245   2.872708   2.077525
    31  C    7.917564   7.092853   8.014198   3.980082   2.595404
    32  C    8.104253   6.964516   7.791075   4.765796   3.919420
    33  C    9.144858   8.499848   9.436767   4.676205   2.441311
    34  O    5.627793   4.814346   5.806304   2.904345   3.173497
    35  H    9.112416   7.899388   8.671656   5.709059   4.670204
    36  H    7.379627   6.063293   6.848837   4.727391   4.465218
    37  H   10.002199   9.218731  10.110771   5.610020   3.525578
    38  H    9.488833   8.901909   9.892127   5.108738   2.288653
    39  H    9.109079   8.686523   9.608085   4.277386   2.248004
                   26         27         28         29         30
    26  C    0.000000
    27  H    1.090184   0.000000
    28  H    1.092155   1.797113   0.000000
    29  H    1.092818   1.794827   1.785540   0.000000
    30  C    4.185188   4.324431   4.943687   4.591308   0.000000
    31  C    5.168784   5.033400   5.915072   5.706320   1.510380
    32  C    5.769870   5.473256   6.644378   6.180720   2.429686
    33  C    5.881430   5.738660   6.426811   6.604014   2.618249
    34  O    4.023306   4.207918   4.929699   4.139511   1.230500
    35  H    6.653154   6.246927   7.499520   7.118324   3.447051
    36  H    5.619482   5.342496   6.593262   5.846493   2.598634
    37  H    6.724413   6.449193   7.294167   7.455828   3.532871
    38  H    6.427045   6.443431   6.903724   7.118186   2.927592
    39  H    5.384305   5.214724   5.792694   6.233571   2.933105
                   31         32         33         34         35
    31  C    0.000000
    32  C    1.337340   0.000000
    33  C    1.510122   2.501654   0.000000
    34  O    2.408656   2.785916   3.753457   0.000000
    35  H    2.120426   1.086532   2.748545   3.872168   0.000000
    36  H    2.102295   1.084906   3.487455   2.437409   1.863460
    37  H    2.155743   2.624519   1.093720   4.558096   2.411571
    38  H    2.171677   3.230168   1.098129   4.090923   3.514241
    39  H    2.172956   3.228843   1.098783   4.099035   3.511740
                   36         37         38         39
    36  H    0.000000
    37  H    3.706550   0.000000
    38  H    4.142855   1.768229   0.000000
    39  H    4.143266   1.767649   1.768918   0.000000
 Stoichiometry    C16H18N2O3
 Framework group  C1[X(C16H18N2O3)]
 Deg. of freedom   111
 Full point group                 C1      NOp   1
 Largest Abelian subgroup         C1      NOp   1
 Largest concise Abelian subgroup C1      NOp   1
                         Standard orientation:                         
 ---------------------------------------------------------------------
 Center     Atomic      Atomic             Coordinates (Angstroms)
 Number     Number       Type             X           Y           Z
 ---------------------------------------------------------------------
      1          7           0       -2.215953    0.657548    0.615560
      2          6           0       -1.193893    1.490889    1.217691
      3          1           0       -1.695331    2.195533    1.887699
      4          6           0       -0.439333    2.315728    0.185201
      5          8           0        0.305586    3.225189    0.480088
      6          6           0       -0.186146    0.678252    2.094625
      7          1           0        0.518883    1.394573    2.531241
      8          1           0       -0.778420    0.262918    2.915794
      9          6           0        0.540846   -0.417572    1.371960
     10          6           0        0.151911   -1.733776    1.310067
     11          1           0       -0.697556   -2.219197    1.771704
     12          6           0        1.758157   -0.319920    0.596514
     13          7           0        1.041213   -2.458666    0.539439
     14          1           0        1.003402   -3.454675    0.389730
     15          6           0        2.043548   -1.620788    0.094687
     16          6           0        2.645456    0.729641    0.290610
     17          1           0        2.458121    1.734322    0.657953
     18          6           0        3.166197   -1.892151   -0.694580
     19          1           0        3.366125   -2.893875   -1.066763
     20          6           0        3.762123    0.463476   -0.493171
     21          1           0        4.454124    1.267286   -0.729774
     22          6           0        4.019839   -0.833813   -0.982291
     23          1           0        4.902544   -1.010669   -1.590813
     24          8           0       -0.648356    1.896445   -1.080431
     25          1           0       -3.166904    0.989868    0.656216
     26          6           0        0.122086    2.570145   -2.094169
     27          1           0       -0.237848    2.175023   -3.044341
     28          1           0       -0.034687    3.649488   -2.037220
     29          1           0        1.183497    2.346226   -1.961810
     30          6           0       -1.892156   -0.484665   -0.062726
     31          6           0       -3.053512   -1.246246   -0.656439
     32          6           0       -2.765192   -2.366246   -1.327967
     33          6           0       -4.464577   -0.738322   -0.479305
     34          8           0       -0.725740   -0.861067   -0.171939
     35          1           0       -3.541563   -2.974729   -1.783540
     36          1           0       -1.734812   -2.691414   -1.425960
     37          1           0       -5.181029   -1.407158   -0.964670
     38          1           0       -4.742196   -0.668659    0.580865
     39          1           0       -4.597218    0.260626   -0.917294
 ---------------------------------------------------------------------
 Rotational constants (GHZ):      0.4531607      0.2910845      0.2255562
 Leave Link  202 at Thu Feb 08 10:20:53 2024, MaxMem=    33554432 cpu:         0.0
 (Enter C:\G09W\l301.exe)
 Standard basis: 6-31G(d,p) (6D, 7F)
 Ernie: Thresh=  0.10000D-02 Tol=  0.10000D-05 Strict=F.
 There are   405 symmetry adapted cartesian basis functions of A   symmetry.
 There are   405 symmetry adapted basis functions of A   symmetry.
   405 basis functions,   714 primitive gaussians,   405 cartesian basis functions
    76 alpha electrons       76 beta electrons
       nuclear repulsion energy      1774.5506202358 Hartrees.
 IExCor=  402 DFT=T Ex+Corr=B3LYP ExCW=0 ScaHFX=  0.200000
 ScaDFX=  0.800000  0.720000  1.000000  0.810000 ScalE2=  1.000000  1.000000
 IRadAn=      0 IRanWt=     -1 IRanGd=            0 ICorTp=0 IEmpDi=  4
 NAtoms=   39 NActive=   39 NUniq=   39 SFac= 1.00D+00 NAtFMM=   60 NAOKFM=F Big=F
 Integral buffers will be    262144 words long.
 Raffenetti 2 integral format.
 Two-electron integral symmetry is turned on.
 Leave Link  301 at Thu Feb 08 10:20:53 2024, MaxMem=    33554432 cpu:         0.0
 (Enter C:\G09W\l302.exe)
 NPDir=0 NMtPBC=     1 NCelOv=     1 NCel=       1 NClECP=     1 NCelD=      1
         NCelK=      1 NCelE2=     1 NClLst=     1 CellRange=     0.0.
 One-electron integrals computed using PRISM.
 NBasis=   405 RedAO= T EigKep=  3.53D-04  NBF=   405
 NBsUse=   405 1.00D-06 EigRej= -1.00D+00 NBFU=   405
 Precomputing XC quadrature grid using
 IXCGrd= 4 IRadAn=           0 IRanWt=          -1 IRanGd=           0 AccXCQ= 0.00D+00.
 Generated NRdTot=       0 NPtTot=           0 NUsed=           0 NTot=          16
 NSgBfM=   403   403   403   403   403 MxSgAt=    39 MxSgA2=    39.
 Leave Link  302 at Thu Feb 08 10:20:54 2024, MaxMem=    33554432 cpu:         1.0
 (Enter C:\G09W\l303.exe)
 DipDrv:  MaxL=1.
 Leave Link  303 at Thu Feb 08 10:20:54 2024, MaxMem=    33554432 cpu:         0.0
 (Enter C:\G09W\l401.exe)
 ExpMin= 1.61D-01 ExpMax= 5.48D+03 ExpMxC= 8.25D+02 IAcc=1 IRadAn=         1 AccDes= 0.00D+00
 Harris functional with IExCor=  402 and IRadAn=       1 diagonalized for initial guess.
 HarFok:  IExCor=  402 AccDes= 0.00D+00 IRadAn=         1 IDoV= 1 UseB2=F ITyADJ=14
 ICtDFT=  3500011 ScaDFX=  1.000000  1.000000  1.000000  1.000000
 FoFCou: FMM=F IPFlag=           0 FMFlag=      100000 FMFlg1=           0
         NFxFlg=           0 DoJE=T BraDBF=F KetDBF=T FulRan=T
         wScrn=  0.000000 ICntrl=     500 IOpCl=  0 I1Cent=   200000004 NGrid=           0
         NMat0=    1 NMatS0=      1 NMatT0=    0 NMatD0=    1 NMtDS0=    0 NMtDT0=    0
 Petite list used in FoFCou.
 Harris En= -955.701501680700    
 JPrj=0 DoOrth=F DoCkMO=F.
 Leave Link  401 at Thu Feb 08 10:20:56 2024, MaxMem=    33554432 cpu:         2.0
 (Enter C:\G09W\l502.exe)
 Closed shell SCF:
 Using DIIS extrapolation, IDIIS=  1040.
 Integral symmetry usage will be decided dynamically.
 IVT=      516292 IEndB=      516292 NGot=    33554432 MDV=    33219211
 LenX=    33219211 LenY=    33054745
 Requested convergence on RMS density matrix=1.00D-08 within 128 cycles.
 Requested convergence on MAX density matrix=1.00D-06.
 Requested convergence on             energy=1.00D-06.
 No special actions if energy rises.
 Fock matrices will be formed incrementally for  20 cycles.
 Integral accuracy reduced to 1.0D-05 until final iterations.

 Cycle   1  Pass 0  IDiag  1:
 FoFJK:  IHMeth= 1 ICntrl=       0 DoSepK=F KAlg= 0 I1Cent=   0 FoldK=F
 IRaf= 750000000 NMat=   1 IRICut=       1 DoRegI=T DoRafI=F ISym2E= 0.
 FoFCou: FMM=F IPFlag=           0 FMFlag=      100000 FMFlg1=           0
         NFxFlg=           0 DoJE=F BraDBF=F KetDBF=F FulRan=T
         wScrn=  0.000000 ICntrl=       0 IOpCl=  0 I1Cent=           0 NGrid=           0
         NMat0=    1 NMatS0=      1 NMatT0=    0 NMatD0=    1 NMtDS0=    0 NMtDT0=    0
 Symmetry not used in FoFCou.
 E= -955.095889083749    
 DIIS: error= 1.78D-02 at cycle   1 NSaved=   1.
 NSaved= 1 IEnMin= 1 EnMin= -955.095889083749     IErMin= 1 ErrMin= 1.78D-02
 ErrMax= 1.78D-02  0.00D+00 EMaxC= 1.00D-01 BMatC= 5.75D-01 BMatP= 5.75D-01
 IDIUse=3 WtCom= 8.22D-01 WtEn= 1.78D-01
 Coeff-Com:  0.100D+01
 Coeff-En:   0.100D+01
 Coeff:      0.100D+01
 Gap=     0.044 Goal=   None    Shift=    0.000
 GapD=    0.044 DampG=0.250 DampE=0.500 DampFc=0.2500 IDamp=-1.
 Damping current iteration by 2.50D-01
 RMSDP=5.39D-03 MaxDP=2.32D-01              OVMax= 4.99D-01

 Cycle   2  Pass 0  IDiag  1:
 RMSU=  1.34D-03    CP:  9.91D-01
 E= -955.289118041537     Delta-E=       -0.193228957788 Rises=F Damp=T
 DIIS: error= 1.08D-02 at cycle   2 NSaved=   2.
 NSaved= 2 IEnMin= 2 EnMin= -955.289118041537     IErMin= 2 ErrMin= 1.08D-02
 ErrMax= 1.08D-02  0.00D+00 EMaxC= 1.00D-01 BMatC= 1.27D-01 BMatP= 5.75D-01
 IDIUse=3 WtCom= 8.92D-01 WtEn= 1.08D-01
 Coeff-Com: -0.544D+00 0.154D+01
 Coeff-En:   0.000D+00 0.100D+01
 Coeff:     -0.486D+00 0.149D+01
 Gap=     0.192 Goal=   None    Shift=    0.000
 RMSDP=1.83D-03 MaxDP=6.59D-02 DE=-1.93D-01 OVMax= 4.96D-01

 Cycle   3  Pass 0  IDiag  1:
 RMSU=  1.77D-03    CP:  9.64D-01  1.14D+00
 E= -955.547723125859     Delta-E=       -0.258605084322 Rises=F Damp=F
 DIIS: error= 1.13D-02 at cycle   3 NSaved=   3.
 NSaved= 3 IEnMin= 3 EnMin= -955.547723125859     IErMin= 2 ErrMin= 1.08D-02
 ErrMax= 1.13D-02  0.00D+00 EMaxC= 1.00D-01 BMatC= 1.23D-01 BMatP= 1.27D-01
 IDIUse=3 WtCom= 8.87D-01 WtEn= 1.13D-01
 Coeff-Com: -0.428D+00 0.100D+01 0.426D+00
 Coeff-En:   0.000D+00 0.000D+00 0.100D+01
 Coeff:     -0.379D+00 0.888D+00 0.491D+00
 Gap=     0.093 Goal=   None    Shift=    0.000
 RMSDP=1.25D-03 MaxDP=7.92D-02 DE=-2.59D-01 OVMax= 1.64D-01

 Cycle   4  Pass 0  IDiag  1:
 RMSU=  8.03D-04    CP:  9.70D-01  1.46D+00  5.15D-01
 E= -955.637876390697     Delta-E=       -0.090153264838 Rises=F Damp=F
 DIIS: error= 3.89D-03 at cycle   4 NSaved=   4.
 NSaved= 4 IEnMin= 4 EnMin= -955.637876390697     IErMin= 4 ErrMin= 3.89D-03
 ErrMax= 3.89D-03  0.00D+00 EMaxC= 1.00D-01 BMatC= 2.18D-02 BMatP= 1.23D-01
 IDIUse=3 WtCom= 9.61D-01 WtEn= 3.89D-02
 Coeff-Com: -0.114D+00 0.260D+00 0.307D+00 0.547D+00
 Coeff-En:   0.000D+00 0.000D+00 0.178D+00 0.822D+00
 Coeff:     -0.110D+00 0.250D+00 0.302D+00 0.558D+00
 Gap=     0.104 Goal=   None    Shift=    0.000
 RMSDP=4.59D-04 MaxDP=2.96D-02 DE=-9.02D-02 OVMax= 6.02D-02

 Cycle   5  Pass 0  IDiag  1:
 RMSU=  2.37D-04    CP:  9.70D-01  1.35D+00  6.42D-01  6.46D-01
 E= -955.653914974122     Delta-E=       -0.016038583425 Rises=F Damp=F
 DIIS: error= 1.42D-03 at cycle   5 NSaved=   5.
 NSaved= 5 IEnMin= 5 EnMin= -955.653914974122     IErMin= 5 ErrMin= 1.42D-03
 ErrMax= 1.42D-03  0.00D+00 EMaxC= 1.00D-01 BMatC= 2.34D-03 BMatP= 2.18D-02
 IDIUse=3 WtCom= 9.86D-01 WtEn= 1.42D-02
 Coeff-Com: -0.251D-01 0.529D-01 0.142D+00 0.362D+00 0.469D+00
 Coeff-En:   0.000D+00 0.000D+00 0.000D+00 0.833D-01 0.917D+00
 Coeff:     -0.248D-01 0.521D-01 0.140D+00 0.358D+00 0.475D+00
 Gap=     0.103 Goal=   None    Shift=    0.000
 RMSDP=1.70D-04 MaxDP=7.04D-03 DE=-1.60D-02 OVMax= 2.28D-02

 Cycle   6  Pass 0  IDiag  1:
 RMSU=  9.04D-05    CP:  9.70D-01  1.37D+00  6.30D-01  7.02D-01  4.46D-01
 E= -955.655930831162     Delta-E=       -0.002015857040 Rises=F Damp=F
 DIIS: error= 5.85D-04 at cycle   6 NSaved=   6.
 NSaved= 6 IEnMin= 6 EnMin= -955.655930831162     IErMin= 6 ErrMin= 5.85D-04
 ErrMax= 5.85D-04  0.00D+00 EMaxC= 1.00D-01 BMatC= 2.41D-04 BMatP= 2.34D-03
 IDIUse=3 WtCom= 9.94D-01 WtEn= 5.85D-03
 Coeff-Com: -0.386D-02 0.625D-02 0.486D-01 0.146D+00 0.293D+00 0.510D+00
 Coeff-En:   0.000D+00 0.000D+00 0.000D+00 0.000D+00 0.798D-01 0.920D+00
 Coeff:     -0.384D-02 0.621D-02 0.483D-01 0.145D+00 0.292D+00 0.513D+00
 Gap=     0.104 Goal=   None    Shift=    0.000
 RMSDP=5.33D-05 MaxDP=1.99D-03 DE=-2.02D-03 OVMax= 7.08D-03

 Cycle   7  Pass 0  IDiag  1:
 RMSU=  2.71D-05    CP:  9.69D-01  1.37D+00  6.35D-01  6.97D-01  5.56D-01
                    CP:  5.98D-01
 E= -955.656130640959     Delta-E=       -0.000199809797 Rises=F Damp=F
 DIIS: error= 3.22D-04 at cycle   7 NSaved=   7.
 NSaved= 7 IEnMin= 7 EnMin= -955.656130640959     IErMin= 7 ErrMin= 3.22D-04
 ErrMax= 3.22D-04  0.00D+00 EMaxC= 1.00D-01 BMatC= 3.87D-05 BMatP= 2.41D-04
 IDIUse=3 WtCom= 9.97D-01 WtEn= 3.22D-03
 Coeff-Com:  0.643D-03-0.263D-02 0.131D-01 0.463D-01 0.131D+00 0.340D+00
 Coeff-Com:  0.472D+00
 Coeff-En:   0.000D+00 0.000D+00 0.000D+00 0.000D+00 0.000D+00 0.934D-01
 Coeff-En:   0.907D+00
 Coeff:      0.641D-03-0.262D-02 0.131D-01 0.462D-01 0.131D+00 0.339D+00
 Coeff:      0.473D+00
 Gap=     0.104 Goal=   None    Shift=    0.000
 RMSDP=1.42D-05 MaxDP=1.10D-03 DE=-2.00D-04 OVMax= 1.67D-03

 Cycle   8  Pass 0  IDiag  1:
 RMSU=  8.40D-06    CP:  9.69D-01  1.36D+00  6.35D-01  7.01D-01  5.57D-01
                    CP:  6.41D-01  6.18D-01
 E= -955.656160191715     Delta-E=       -0.000029550756 Rises=F Damp=F
 DIIS: error= 4.32D-05 at cycle   8 NSaved=   8.
 NSaved= 8 IEnMin= 8 EnMin= -955.656160191715     IErMin= 8 ErrMin= 4.32D-05
 ErrMax= 4.32D-05  0.00D+00 EMaxC= 1.00D-01 BMatC= 1.35D-06 BMatP= 3.87D-05
 IDIUse=1 WtCom= 1.00D+00 WtEn= 0.00D+00
 Coeff-Com:  0.666D-03-0.178D-02 0.207D-02 0.874D-02 0.382D-01 0.126D+00
 Coeff-Com:  0.225D+00 0.602D+00
 Coeff:      0.666D-03-0.178D-02 0.207D-02 0.874D-02 0.382D-01 0.126D+00
 Coeff:      0.225D+00 0.602D+00
 Gap=     0.104 Goal=   None    Shift=    0.000
 RMSDP=4.21D-06 MaxDP=1.72D-04 DE=-2.96D-05 OVMax= 4.34D-04

 Initial convergence to 1.0D-05 achieved.  Increase integral accuracy.
 Cycle   9  Pass 1  IDiag  1:
 E= -955.656089770193     Delta-E=        0.000070421522 Rises=F Damp=F
 DIIS: error= 3.70D-05 at cycle   1 NSaved=   1.
 NSaved= 1 IEnMin= 1 EnMin= -955.656089770193     IErMin= 1 ErrMin= 3.70D-05
 ErrMax= 3.70D-05  0.00D+00 EMaxC= 1.00D-01 BMatC= 1.16D-06 BMatP= 1.16D-06
 IDIUse=1 WtCom= 1.00D+00 WtEn= 0.00D+00
 Coeff-Com:  0.100D+01
 Coeff:      0.100D+01
 Gap=     0.104 Goal=   None    Shift=    0.000
 RMSDP=4.21D-06 MaxDP=1.72D-04 DE= 7.04D-05 OVMax= 6.20D-04

 Cycle  10  Pass 1  IDiag  1:
 RMSU=  2.49D-05    CP:  1.00D+00
 E= -955.656089517419     Delta-E=        0.000000252774 Rises=F Damp=F
 DIIS: error= 4.92D-05 at cycle   2 NSaved=   2.
 NSaved= 2 IEnMin= 1 EnMin= -955.656089770193     IErMin= 1 ErrMin= 3.70D-05
 ErrMax= 4.92D-05  0.00D+00 EMaxC= 1.00D-01 BMatC= 1.53D-06 BMatP= 1.16D-06
 IDIUse=1 WtCom= 1.00D+00 WtEn= 0.00D+00
 Coeff-Com:  0.544D+00 0.456D+00
 Coeff:      0.544D+00 0.456D+00
 Gap=     0.104 Goal=   None    Shift=    0.000
 RMSDP=4.24D-06 MaxDP=2.28D-04 DE= 2.53D-07 OVMax= 5.38D-04

 Cycle  11  Pass 1  IDiag  1:
 RMSU=  4.19D-06    CP:  1.00D+00  9.74D-01
 E= -955.656090610506     Delta-E=       -0.000001093088 Rises=F Damp=F
 DIIS: error= 2.52D-05 at cycle   3 NSaved=   3.
 NSaved= 3 IEnMin= 3 EnMin= -955.656090610506     IErMin= 3 ErrMin= 2.52D-05
 ErrMax= 2.52D-05  0.00D+00 EMaxC= 1.00D-01 BMatC= 3.06D-07 BMatP= 1.16D-06
 IDIUse=1 WtCom= 1.00D+00 WtEn= 0.00D+00
 Coeff-Com:  0.189D-01 0.306D+00 0.675D+00
 Coeff:      0.189D-01 0.306D+00 0.675D+00
 Gap=     0.104 Goal=   None    Shift=    0.000
 RMSDP=1.45D-06 MaxDP=9.21D-05 DE=-1.09D-06 OVMax= 1.67D-04

 Cycle  12  Pass 1  IDiag  1:
 RMSU=  7.37D-07    CP:  1.00D+00  9.92D-01  7.24D-01
 E= -955.656090847823     Delta-E=       -0.000000237317 Rises=F Damp=F
 DIIS: error= 5.75D-06 at cycle   4 NSaved=   4.
 NSaved= 4 IEnMin= 4 EnMin= -955.656090847823     IErMin= 4 ErrMin= 5.75D-06
 ErrMax= 5.75D-06  0.00D+00 EMaxC= 1.00D-01 BMatC= 2.82D-08 BMatP= 3.06D-07
 IDIUse=1 WtCom= 1.00D+00 WtEn= 0.00D+00
 Coeff-Com: -0.721D-02 0.180D+00 0.432D+00 0.396D+00
 Coeff:     -0.721D-02 0.180D+00 0.432D+00 0.396D+00
 Gap=     0.104 Goal=   None    Shift=    0.000
 RMSDP=4.48D-07 MaxDP=2.51D-05 DE=-2.37D-07 OVMax= 3.93D-05

 Cycle  13  Pass 1  IDiag  1:
 RMSU=  2.14D-07    CP:  1.00D+00  9.93D-01  7.19D-01  4.67D-01
 E= -955.656090871914     Delta-E=       -0.000000024091 Rises=F Damp=F
 DIIS: error= 8.23D-07 at cycle   5 NSaved=   5.
 NSaved= 5 IEnMin= 5 EnMin= -955.656090871914     IErMin= 5 ErrMin= 8.23D-07
 ErrMax= 8.23D-07  0.00D+00 EMaxC= 1.00D-01 BMatC= 1.01D-09 BMatP= 2.82D-08
 IDIUse=1 WtCom= 1.00D+00 WtEn= 0.00D+00
 Coeff-Com: -0.499D-02 0.892D-01 0.217D+00 0.234D+00 0.465D+00
 Coeff:     -0.499D-02 0.892D-01 0.217D+00 0.234D+00 0.465D+00
 Gap=     0.104 Goal=   None    Shift=    0.000
 RMSDP=1.10D-07 MaxDP=5.68D-06 DE=-2.41D-08 OVMax= 1.54D-05

 Cycle  14  Pass 1  IDiag  1:
 RMSU=  8.97D-08    CP:  1.00D+00  9.93D-01  7.21D-01  4.89D-01  7.13D-01
 E= -955.656090872802     Delta-E=       -0.000000000888 Rises=F Damp=F
 DIIS: error= 4.46D-07 at cycle   6 NSaved=   6.
 NSaved= 6 IEnMin= 6 EnMin= -955.656090872802     IErMin= 6 ErrMin= 4.46D-07
 ErrMax= 4.46D-07  0.00D+00 EMaxC= 1.00D-01 BMatC= 9.68D-11 BMatP= 1.01D-09
 IDIUse=1 WtCom= 1.00D+00 WtEn= 0.00D+00
 Coeff-Com: -0.191D-02 0.258D-01 0.633D-01 0.796D-01 0.270D+00 0.563D+00
 Coeff:     -0.191D-02 0.258D-01 0.633D-01 0.796D-01 0.270D+00 0.563D+00
 Gap=     0.104 Goal=   None    Shift=    0.000
 RMSDP=3.37D-08 MaxDP=2.01D-06 DE=-8.88D-10 OVMax= 3.45D-06

 Cycle  15  Pass 1  IDiag  1:
 RMSU=  3.08D-08    CP:  1.00D+00  9.93D-01  7.20D-01  4.89D-01  7.43D-01
                    CP:  8.75D-01
 E= -955.656090872836     Delta-E=       -0.000000000034 Rises=F Damp=F
 DIIS: error= 1.55D-07 at cycle   7 NSaved=   7.
 NSaved= 7 IEnMin= 7 EnMin= -955.656090872836     IErMin= 7 ErrMin= 1.55D-07
 ErrMax= 1.55D-07  0.00D+00 EMaxC= 1.00D-01 BMatC= 1.82D-11 BMatP= 9.68D-11
 IDIUse=1 WtCom= 1.00D+00 WtEn= 0.00D+00
 Coeff-Com: -0.426D-03 0.284D-02 0.739D-02 0.157D-01 0.101D+00 0.341D+00
 Coeff-Com:  0.533D+00
 Coeff:     -0.426D-03 0.284D-02 0.739D-02 0.157D-01 0.101D+00 0.341D+00
 Coeff:      0.533D+00
 Gap=     0.104 Goal=   None    Shift=    0.000
 RMSDP=2.00D-08 MaxDP=1.21D-06 DE=-3.41D-11 OVMax= 3.18D-06

 Cycle  16  Pass 1  IDiag  1:
 RMSU=  1.32D-08    CP:  1.00D+00  9.93D-01  7.20D-01  4.95D-01  7.76D-01
                    CP:  9.24D-01  6.18D-01
 E= -955.656090872922     Delta-E=       -0.000000000086 Rises=F Damp=F
 DIIS: error= 6.47D-08 at cycle   8 NSaved=   8.
 NSaved= 8 IEnMin= 8 EnMin= -955.656090872922     IErMin= 8 ErrMin= 6.47D-08
 ErrMax= 6.47D-08  0.00D+00 EMaxC= 1.00D-01 BMatC= 5.27D-12 BMatP= 1.82D-11
 IDIUse=1 WtCom= 1.00D+00 WtEn= 0.00D+00
 Coeff-Com:  0.434D-04-0.282D-02-0.665D-02-0.360D-02 0.222D-01 0.122D+00
 Coeff-Com:  0.383D+00 0.487D+00
 Coeff:      0.434D-04-0.282D-02-0.665D-02-0.360D-02 0.222D-01 0.122D+00
 Coeff:      0.383D+00 0.487D+00
 Gap=     0.104 Goal=   None    Shift=    0.000
 RMSDP=7.61D-09 MaxDP=3.19D-07 DE=-8.64D-11 OVMax= 7.81D-07

 SCF Done:  E(RB3LYP) =  -955.656090873     A.U. after   16 cycles
            NFock= 16  Conv=0.76D-08     -V/T= 2.0088
 KE= 9.473201457123D+02 PE=-5.775125405136D+03 EE= 2.097598548315D+03
 Leave Link  502 at Thu Feb 08 10:22:54 2024, MaxMem=    33554432 cpu:       118.0
 (Enter C:\G09W\l601.exe)
 Copying SCF densities to generalized density rwf, IOpCl= 0 IROHF=0.

 **********************************************************************

            Population analysis using the SCF density.

 **********************************************************************

 Orbital symmetries:
       Occupied  (A) (A) (A) (A) (A) (A) (A) (A) (A) (A) (A) (A)
                 (A) (A) (A) (A) (A) (A) (A) (A) (A) (A) (A) (A)
                 (A) (A) (A) (A) (A) (A) (A) (A) (A) (A) (A) (A)
                 (A) (A) (A) (A) (A) (A) (A) (A) (A) (A) (A) (A)
                 (A) (A) (A) (A) (A) (A) (A) (A) (A) (A) (A) (A)
                 (A) (A) (A) (A) (A) (A) (A) (A) (A) (A) (A) (A)
                 (A) (A) (A) (A)
       Virtual   (A) (A) (A) (A) (A) (A) (A) (A) (A) (A) (A) (A)
                 (A) (A) (A) (A) (A) (A) (A) (A) (A) (A) (A) (A)
                 (A) (A) (A) (A) (A) (A) (A) (A) (A) (A) (A) (A)
                 (A) (A) (A) (A) (A) (A) (A) (A) (A) (A) (A) (A)
                 (A) (A) (A) (A) (A) (A) (A) (A) (A) (A) (A) (A)
                 (A) (A) (A) (A) (A) (A) (A) (A) (A) (A) (A) (A)
                 (A) (A) (A) (A) (A) (A) (A) (A) (A) (A) (A) (A)
                 (A) (A) (A) (A) (A) (A) (A) (A) (A) (A) (A) (A)
                 (A) (A) (A) (A) (A) (A) (A) (A) (A) (A) (A) (A)
                 (A) (A) (A) (A) (A) (A) (A) (A) (A) (A) (A) (A)
                 (A) (A) (A) (A) (A) (A) (A) (A) (A) (A) (A) (A)
                 (A) (A) (A) (A) (A) (A) (A) (A) (A) (A) (A) (A)
                 (A) (A) (A) (A) (A) (A) (A) (A) (A) (A) (A) (A)
                 (A) (A) (A) (A) (A) (A) (A) (A) (A) (A) (A) (A)
                 (A) (A) (A) (A) (A) (A) (A) (A) (A) (A) (A) (A)
                 (A) (A) (A) (A) (A) (A) (A) (A) (A) (A) (A) (A)
                 (A) (A) (A) (A) (A) (A) (A) (A) (A) (A) (A) (A)
                 (A) (A) (A) (A) (A) (A) (A) (A) (A) (A) (A) (A)
                 (A) (A) (A) (A) (A) (A) (A) (A) (A) (A) (A) (A)
                 (A) (A) (A) (A) (A) (A) (A) (A) (A) (A) (A) (A)
                 (A) (A) (A) (A) (A) (A) (A) (A) (A) (A) (A) (A)
                 (A) (A) (A) (A) (A) (A) (A) (A) (A) (A) (A) (A)
                 (A) (A) (A) (A) (A) (A) (A) (A) (A) (A) (A) (A)
                 (A) (A) (A) (A) (A) (A) (A) (A) (A) (A) (A) (A)
                 (A) (A) (A) (A) (A) (A) (A) (A) (A) (A) (A) (A)
                 (A) (A) (A) (A) (A) (A) (A) (A) (A) (A) (A) (A)
                 (A) (A) (A) (A) (A) (A) (A) (A) (A) (A) (A) (A)
                 (A) (A) (A) (A) (A)
 The electronic state is 1-A.
 Alpha  occ. eigenvalues --  -19.18654 -19.13029 -19.11068 -14.36028 -14.35512
 Alpha  occ. eigenvalues --  -10.30812 -10.27507 -10.24262 -10.23170 -10.20451
 Alpha  occ. eigenvalues --  -10.20187 -10.20006 -10.19535 -10.19385 -10.18626
 Alpha  occ. eigenvalues --  -10.16786 -10.16164 -10.16042 -10.15843 -10.15787
 Alpha  occ. eigenvalues --  -10.15783  -1.09576  -1.04530  -1.00820  -0.95623
 Alpha  occ. eigenvalues --   -0.92820  -0.81647  -0.81282  -0.78773  -0.75178
 Alpha  occ. eigenvalues --   -0.71974  -0.71123  -0.70128  -0.69481  -0.66715
 Alpha  occ. eigenvalues --   -0.61207  -0.60033  -0.57740  -0.57157  -0.55851
 Alpha  occ. eigenvalues --   -0.53693  -0.52217  -0.51582  -0.49424  -0.48287
 Alpha  occ. eigenvalues --   -0.47492  -0.46675  -0.46400  -0.45201  -0.44776
 Alpha  occ. eigenvalues --   -0.43549  -0.42995  -0.42385  -0.41161  -0.40703
 Alpha  occ. eigenvalues --   -0.40551  -0.39563  -0.39175  -0.38758  -0.37896
 Alpha  occ. eigenvalues --   -0.37056  -0.36109  -0.35753  -0.34991  -0.34639
 Alpha  occ. eigenvalues --   -0.33004  -0.31275  -0.30717  -0.29467  -0.29385
 Alpha  occ. eigenvalues --   -0.27811  -0.26350  -0.25026  -0.22919  -0.19212
 Alpha  occ. eigenvalues --   -0.13618
 Alpha virt. eigenvalues --   -0.03182   0.01095   0.01765   0.05071   0.06089
 Alpha virt. eigenvalues --    0.07564   0.08920   0.09456   0.11453   0.12069
 Alpha virt. eigenvalues --    0.12429   0.12769   0.13477   0.13938   0.15637
 Alpha virt. eigenvalues --    0.15740   0.16133   0.16423   0.16706   0.17490
 Alpha virt. eigenvalues --    0.17613   0.18154   0.18625   0.19527   0.20140
 Alpha virt. eigenvalues --    0.20949   0.21554   0.23088   0.24207   0.25346
 Alpha virt. eigenvalues --    0.25985   0.28607   0.28990   0.29664   0.31882
 Alpha virt. eigenvalues --    0.32779   0.34046   0.34599   0.35191   0.36097
 Alpha virt. eigenvalues --    0.37489   0.39786   0.41664   0.43425   0.45387
 Alpha virt. eigenvalues --    0.49292   0.49607   0.50671   0.51550   0.51659
 Alpha virt. eigenvalues --    0.52125   0.53059   0.54377   0.54992   0.55562
 Alpha virt. eigenvalues --    0.56213   0.57504   0.57751   0.58078   0.59214
 Alpha virt. eigenvalues --    0.60010   0.60681   0.61175   0.61576   0.62253
 Alpha virt. eigenvalues --    0.62943   0.63409   0.63816   0.64114   0.64330
 Alpha virt. eigenvalues --    0.64635   0.67048   0.67485   0.69120   0.69330
 Alpha virt. eigenvalues --    0.69923   0.71207   0.71867   0.72292   0.72762
 Alpha virt. eigenvalues --    0.75082   0.75806   0.76908   0.77717   0.79760
 Alpha virt. eigenvalues --    0.79893   0.80960   0.81395   0.81964   0.82782
 Alpha virt. eigenvalues --    0.82983   0.83473   0.83988   0.84856   0.85176
 Alpha virt. eigenvalues --    0.85183   0.86467   0.86786   0.87766   0.88810
 Alpha virt. eigenvalues --    0.90181   0.91172   0.91299   0.92141   0.93231
 Alpha virt. eigenvalues --    0.94316   0.94619   0.96392   0.96824   0.97973
 Alpha virt. eigenvalues --    0.98413   0.99475   0.99819   1.01418   1.02051
 Alpha virt. eigenvalues --    1.04649   1.07221   1.08244   1.08815   1.09949
 Alpha virt. eigenvalues --    1.12124   1.14128   1.14371   1.15690   1.16840
 Alpha virt. eigenvalues --    1.17559   1.18820   1.19876   1.21194   1.25626
 Alpha virt. eigenvalues --    1.27456   1.28448   1.30780   1.31186   1.32014
 Alpha virt. eigenvalues --    1.32464   1.34011   1.34124   1.35434   1.37624
 Alpha virt. eigenvalues --    1.37935   1.39888   1.40153   1.40589   1.41582
 Alpha virt. eigenvalues --    1.43785   1.43860   1.45158   1.45520   1.46145
 Alpha virt. eigenvalues --    1.48028   1.50375   1.50946   1.51610   1.57113
 Alpha virt. eigenvalues --    1.57933   1.59378   1.60804   1.62753   1.64367
 Alpha virt. eigenvalues --    1.66045   1.69183   1.71516   1.73157   1.76263
 Alpha virt. eigenvalues --    1.76597   1.78618   1.79829   1.80359   1.80585
 Alpha virt. eigenvalues --    1.81237   1.82333   1.83101   1.85103   1.86017
 Alpha virt. eigenvalues --    1.86966   1.88663   1.89213   1.89683   1.91257
 Alpha virt. eigenvalues --    1.91429   1.92357   1.93291   1.94724   1.95112
 Alpha virt. eigenvalues --    1.95642   1.95877   1.97451   1.98254   1.98319
 Alpha virt. eigenvalues --    1.99406   2.01017   2.01402   2.02096   2.02433
 Alpha virt. eigenvalues --    2.02880   2.03564   2.03851   2.05386   2.06057
 Alpha virt. eigenvalues --    2.06427   2.08217   2.08777   2.09532   2.11153
 Alpha virt. eigenvalues --    2.12785   2.13597   2.14981   2.15714   2.16050
 Alpha virt. eigenvalues --    2.16798   2.18567   2.19952   2.21308   2.24800
 Alpha virt. eigenvalues --    2.26066   2.27930   2.28234   2.29719   2.29864
 Alpha virt. eigenvalues --    2.30423   2.32553   2.34365   2.36272   2.36771
 Alpha virt. eigenvalues --    2.39380   2.40219   2.41387   2.41726   2.42317
 Alpha virt. eigenvalues --    2.43458   2.43826   2.45238   2.46258   2.46644
 Alpha virt. eigenvalues --    2.48326   2.49787   2.50616   2.51056   2.52264
 Alpha virt. eigenvalues --    2.52811   2.54214   2.55646   2.56289   2.56832
 Alpha virt. eigenvalues --    2.57216   2.59525   2.59882   2.60841   2.61634
 Alpha virt. eigenvalues --    2.62034   2.63438   2.64754   2.65941   2.68245
 Alpha virt. eigenvalues --    2.68354   2.69037   2.69825   2.71187   2.71678
 Alpha virt. eigenvalues --    2.72787   2.74401   2.75351   2.75932   2.76888
 Alpha virt. eigenvalues --    2.79351   2.80233   2.80956   2.82631   2.85091
 Alpha virt. eigenvalues --    2.85995   2.86474   2.87873   2.90261   2.92437
 Alpha virt. eigenvalues --    2.95124   2.95336   2.97509   3.00011   3.02231
 Alpha virt. eigenvalues --    3.05719   3.06782   3.09587   3.11278   3.12088
 Alpha virt. eigenvalues --    3.16813   3.18774   3.20114   3.20387   3.23465
 Alpha virt. eigenvalues --    3.25110   3.26950   3.30755   3.31611   3.36327
 Alpha virt. eigenvalues --    3.38522   3.39303   3.40628   3.41905   3.43582
 Alpha virt. eigenvalues --    3.46026   3.46873   3.50092   3.51916   3.56844
 Alpha virt. eigenvalues --    3.60689   3.74112   3.88121   4.03664   4.10973
 Alpha virt. eigenvalues --    4.12756   4.16839   4.19836   4.23641   4.27687
 Alpha virt. eigenvalues --    4.35771   4.37094   4.38805   4.43056   4.45143
 Alpha virt. eigenvalues --    4.49755   4.51831   4.54778   4.64264   4.67748
 Alpha virt. eigenvalues --    4.77829   4.81566   4.87299   4.94539
          Condensed to atoms (all electrons):
               1          2          3          4          5          6
     1  N    7.129860   0.180019  -0.038802  -0.055515   0.002667  -0.039314
     2  C    0.180019   5.166756   0.375541   0.315070  -0.066791   0.312536
     3  H   -0.038802   0.375541   0.600991  -0.035929   0.000629  -0.025013
     4  C   -0.055515   0.315070  -0.035929   4.400800   0.502176  -0.036451
     5  O    0.002667  -0.066791   0.000629   0.502176   8.109045  -0.000843
     6  C   -0.039314   0.312536  -0.025013  -0.036451  -0.000843   5.074431
     7  H    0.004930  -0.045753  -0.001181  -0.002145   0.005457   0.366954
     8  H    0.002336  -0.044186  -0.006669   0.006040   0.000075   0.365311
     9  C   -0.004069  -0.050225   0.004361  -0.003679  -0.001712   0.387035
    10  C    0.008419  -0.008009  -0.000064   0.000171  -0.000027  -0.084264
    11  H    0.000329   0.000276  -0.000009   0.000037   0.000000  -0.003478
    12  C    0.000583  -0.004357   0.000020   0.003116  -0.000393  -0.056936
    13  N   -0.000077   0.000030   0.000001   0.000007   0.000000   0.004748
    14  H    0.000004  -0.000004   0.000000   0.000000   0.000000  -0.000089
    15  C   -0.000007   0.000224   0.000003  -0.000169   0.000003   0.010750
    16  C    0.000065  -0.000236  -0.000024   0.003024  -0.004387  -0.013440
    17  H    0.000002  -0.000477   0.000026   0.000377   0.010902   0.002688
    18  C    0.000001   0.000005   0.000000  -0.000005   0.000000  -0.000196
    19  H    0.000000   0.000000   0.000000   0.000000   0.000000   0.000002
    20  C    0.000000  -0.000002   0.000000  -0.000012   0.000063   0.000040
    21  H    0.000000   0.000000   0.000000   0.000002  -0.000004   0.000000
    22  C    0.000000  -0.000002   0.000000  -0.000003   0.000001   0.000003
    23  H    0.000000   0.000000   0.000000   0.000000   0.000000   0.000000
    24  O   -0.001317  -0.090974   0.002354   0.276318  -0.079010  -0.001884
    25  H    0.340985  -0.027512  -0.005572   0.001256  -0.000036   0.002792
    26  C   -0.000525   0.007360  -0.000173  -0.022366   0.003974  -0.000138
    27  H   -0.000015  -0.000032   0.000004   0.004431   0.000652  -0.000001
    28  H   -0.000062   0.000128   0.000030  -0.006655   0.007655  -0.000026
    29  H   -0.000002  -0.000405  -0.000018  -0.004826   0.003880   0.000109
    30  C    0.231708  -0.017025   0.004031  -0.004620   0.000050  -0.005630
    31  C   -0.107954   0.007044  -0.000157  -0.000250   0.000001  -0.000488
    32  C    0.007715  -0.000255   0.000002   0.000007   0.000000   0.000017
    33  C   -0.008092   0.000049  -0.000014  -0.000010   0.000000   0.000021
    34  O   -0.105006   0.024996   0.000145  -0.000615  -0.000001  -0.015670
    35  H   -0.000127   0.000002   0.000000   0.000000   0.000000   0.000000
    36  H    0.000576  -0.000007   0.000000  -0.000002   0.000000   0.000008
    37  H    0.000076   0.000001   0.000000   0.000000   0.000000   0.000000
    38  H    0.001801   0.000020  -0.000007   0.000008   0.000000  -0.000012
    39  H    0.000626  -0.000051   0.000007  -0.000007   0.000000   0.000003
               7          8          9         10         11         12
     1  N    0.004930   0.002336  -0.004069   0.008419   0.000329   0.000583
     2  C   -0.045753  -0.044186  -0.050225  -0.008009   0.000276  -0.004357
     3  H   -0.001181  -0.006669   0.004361  -0.000064  -0.000009   0.000020
     4  C   -0.002145   0.006040  -0.003679   0.000171   0.000037   0.003116
     5  O    0.005457   0.000075  -0.001712  -0.000027   0.000000  -0.000393
     6  C    0.366954   0.365311   0.387035  -0.084264  -0.003478  -0.056936
     7  H    0.593970  -0.027672  -0.028239   0.003923  -0.000019  -0.005444
     8  H   -0.027672   0.634622  -0.030099  -0.006123   0.003740   0.003626
     9  C   -0.028239  -0.030099   5.062395   0.488896  -0.033436   0.411783
    10  C    0.003923  -0.006123   0.488896   5.084233   0.378985   0.038132
    11  H   -0.000019   0.003740  -0.033436   0.378985   0.613284   0.002674
    12  C   -0.005444   0.003626   0.411783   0.038132   0.002674   4.781421
    13  N   -0.000035   0.000064  -0.045691   0.309906  -0.047882  -0.050148
    14  H    0.000004  -0.000005   0.005078  -0.038521  -0.002889   0.007457
    15  C   -0.000237  -0.000135   0.011274  -0.129838   0.005595   0.436082
    16  C    0.003557   0.000031  -0.114662   0.015065  -0.000170   0.478929
    17  H    0.001808  -0.000012  -0.008549  -0.000180  -0.000002  -0.036431
    18  C   -0.000010   0.000003   0.012041   0.006607  -0.000125  -0.047158
    19  H    0.000000   0.000000  -0.000269   0.000037   0.000001   0.004541
    20  C   -0.000022   0.000002   0.008344  -0.000406   0.000004  -0.007158
    21  H    0.000001   0.000000  -0.000211   0.000005   0.000000   0.002405
    22  C    0.000002   0.000000   0.000020  -0.000111   0.000002  -0.036752
    23  H    0.000000   0.000000   0.000007   0.000003   0.000000   0.001013
    24  O    0.000254  -0.000098   0.001587   0.000162  -0.000001  -0.000103
    25  H   -0.000143   0.000171  -0.000025  -0.000141  -0.000002  -0.000007
    26  C   -0.000013   0.000006   0.000159   0.000010   0.000000   0.000067
    27  H    0.000000   0.000000   0.000001   0.000000   0.000000  -0.000012
    28  H   -0.000001   0.000000   0.000006   0.000000   0.000000   0.000015
    29  H   -0.000009   0.000000  -0.000209  -0.000011   0.000000   0.000053
    30  C    0.000062  -0.000889   0.001793  -0.011120   0.000012  -0.000185
    31  C   -0.000001  -0.000124  -0.000647  -0.006476   0.001111  -0.000180
    32  C    0.000000   0.000001   0.000164   0.000862   0.000789   0.000014
    33  C    0.000000  -0.000002   0.000024   0.000154  -0.000024   0.000001
    34  O   -0.000102  -0.000911  -0.136413  -0.124534  -0.010867  -0.032261
    35  H    0.000000   0.000000   0.000000   0.000022  -0.000001   0.000000
    36  H    0.000000  -0.000001  -0.000113   0.000813   0.000002  -0.000029
    37  H    0.000000   0.000000   0.000000  -0.000003   0.000000   0.000000
    38  H    0.000000   0.000008  -0.000001   0.000018  -0.000011   0.000000
    39  H    0.000000  -0.000001   0.000001  -0.000002   0.000002   0.000000
              13         14         15         16         17         18
     1  N   -0.000077   0.000004  -0.000007   0.000065   0.000002   0.000001
     2  C    0.000030  -0.000004   0.000224  -0.000236  -0.000477   0.000005
     3  H    0.000001   0.000000   0.000003  -0.000024   0.000026   0.000000
     4  C    0.000007   0.000000  -0.000169   0.003024   0.000377  -0.000005
     5  O    0.000000   0.000000   0.000003  -0.004387   0.010902   0.000000
     6  C    0.004748  -0.000089   0.010750  -0.013440   0.002688  -0.000196
     7  H   -0.000035   0.000004  -0.000237   0.003557   0.001808  -0.000010
     8  H    0.000064  -0.000005  -0.000135   0.000031  -0.000012   0.000003
     9  C   -0.045691   0.005078   0.011274  -0.114662  -0.008549   0.012041
    10  C    0.309906  -0.038521  -0.129838   0.015065  -0.000180   0.006607
    11  H   -0.047882  -0.002889   0.005595  -0.000170  -0.000002  -0.000125
    12  C   -0.050148   0.007457   0.436082   0.478929  -0.036431  -0.047158
    13  N    6.933176   0.363571   0.240847   0.012548  -0.000102  -0.093889
    14  H    0.363571   0.454817  -0.033356  -0.000091   0.000004  -0.005230
    15  C    0.240847  -0.033356   4.824137  -0.060826   0.005258   0.479177
    16  C    0.012548  -0.000091  -0.060826   5.104212   0.355535  -0.059708
    17  H   -0.000102   0.000004   0.005258   0.355535   0.616936   0.000450
    18  C   -0.093889  -0.005230   0.479177  -0.059708   0.000450   4.991385
    19  H   -0.006526   0.002780  -0.039192   0.000540   0.000018   0.354764
    20  C   -0.000213  -0.000007  -0.043540   0.502072  -0.041780  -0.029588
    21  H    0.000003   0.000000   0.001121  -0.037349  -0.005572   0.004796
    22  C    0.005507  -0.000067  -0.005759  -0.027257   0.004424   0.527419
    23  H   -0.000116  -0.000001   0.003096   0.004772  -0.000180  -0.039475
    24  O   -0.000002   0.000000  -0.000077   0.000345  -0.000580   0.000003
    25  H    0.000004   0.000000  -0.000001   0.000000   0.000000   0.000000
    26  C   -0.000001   0.000000  -0.000001  -0.002135   0.000036   0.000010
    27  H    0.000000   0.000000  -0.000001   0.000011   0.000005   0.000000
    28  H    0.000000   0.000000   0.000000   0.000073  -0.000061   0.000000
    29  H    0.000002   0.000000  -0.000010   0.004431   0.000860  -0.000044
    30  C   -0.000325   0.000066  -0.000465  -0.000080  -0.000005  -0.000022
    31  C    0.000421  -0.000033   0.000031  -0.000001   0.000000  -0.000001
    32  C   -0.000683   0.000037  -0.000008   0.000000   0.000000   0.000001
    33  C   -0.000001   0.000000   0.000000   0.000000   0.000000   0.000000
    34  O   -0.044093  -0.000238   0.025736  -0.001660  -0.000025   0.000243
    35  H   -0.000003   0.000000   0.000000   0.000000   0.000000   0.000000
    36  H    0.001527   0.000207   0.000045   0.000000   0.000000  -0.000008
    37  H    0.000000   0.000000   0.000000   0.000000   0.000000   0.000000
    38  H    0.000000   0.000000   0.000000   0.000000   0.000000   0.000000
    39  H    0.000000   0.000000   0.000000   0.000000   0.000000   0.000000
              19         20         21         22         23         24
     1  N    0.000000   0.000000   0.000000   0.000000   0.000000  -0.001317
     2  C    0.000000  -0.000002   0.000000  -0.000002   0.000000  -0.090974
     3  H    0.000000   0.000000   0.000000   0.000000   0.000000   0.002354
     4  C    0.000000  -0.000012   0.000002  -0.000003   0.000000   0.276318
     5  O    0.000000   0.000063  -0.000004   0.000001   0.000000  -0.079010
     6  C    0.000002   0.000040   0.000000   0.000003   0.000000  -0.001884
     7  H    0.000000  -0.000022   0.000001   0.000002   0.000000   0.000254
     8  H    0.000000   0.000002   0.000000   0.000000   0.000000  -0.000098
     9  C   -0.000269   0.008344  -0.000211   0.000020   0.000007   0.001587
    10  C    0.000037  -0.000406   0.000005  -0.000111   0.000003   0.000162
    11  H    0.000001   0.000004   0.000000   0.000002   0.000000  -0.000001
    12  C    0.004541  -0.007158   0.002405  -0.036752   0.001013  -0.000103
    13  N   -0.006526  -0.000213   0.000003   0.005507  -0.000116  -0.000002
[...]
 015,-0.00037525,-0.00002696,0.00005148,-0.00008827,-0.00017919,-0.0000
 0872,-0.00009866,0.00005143,-0.00000435,0.00002332,0.00002618,-0.00001
 688,0.00007610,0.00001397,-0.00001013,-0.00000728,0.00000117,0.0000015
 8,-0.00000416,0.00000105,-0.00000019,-0.00001310,0.00000982,0.00002975
 ,0.00004336,0.00000177,0.00000549,0.00000337,-0.00000402,-0.00000288,-
 0.00000978,-0.00001103,-0.00002138,-0.00003559,0.00001406,-0.00000759,
 0.00001648,-0.00001023,-0.00001363,0.00001323,0.00000940,0.00000304,-0
 .00000828,-0.00000671,0.00000546,-0.00000351,0.00000492,0.00001228,0.0
 0001023,0.00000205,-0.00000390,-0.00000666,0.00000806,0.00000046,-0.00
 000769,-0.00000262,0.00000086,-0.00000053,0.00000117,0.00000189,0.0000
 0651,-0.00000131,-0.00000361,0.00000014,0.00006255,0.00000024,0.000034
 93,-0.00003361,0.00018351,0.00010729,0.00000351,-0.00001061,-0.0000285
 5,0.00000015,0.00000084,-0.00000460,0.00000664,0.00000306,0.00000820,0
 .00000020,0.00001051,-0.00001133,-0.00571318,-0.00137185,0.00322842,-0
 .00951127,0.00903612,-0.01126954,0.05433612,-0.11061313,0.10483738,0.0
 0165880,-0.00036097,-0.00320832,0.00188490,0.00106434,0.00051328,-0.05
 517852,0.10605897,-0.00024230,0.00040592,-0.00105494,0.00033676,-0.000
 56698,-0.00027261,-0.00009776,0.00007183,-0.00014377,-0.00015320,-0.00
 001652,0.00020530,0.00003474,0.00006980,-0.00009175,0.00008671,-0.0000
 0829,0.00006177,0.00000445,0.00000356,-0.00001036,-0.00000240,-0.00000
 382,0.00000508,-0.00003164,-0.00000874,0.00001795,0.00000012,0.0000151
 2,-0.00006368,0.00000892,-0.00000030,-0.00000432,-0.00000894,-0.000020
 35,0.00000514,-0.00000767,0.00003793,0.00002723,0.00001375,0.00000276,
 -0.00000900,0.00000344,-0.00000427,0.00001562,-0.00000778,-0.00000511,
 0.00000846,0.00000506,-0.00000918,0.00000192,-0.00000668,-0.00000795,-
 0.00000620,0.00000219,0.00000028,0.00000441,-0.00000407,0.00000275,0.0
 0000731,0.00000269,0.00000354,-0.00000305,0.00000031,0.00000435,-0.000
 00510,0.00000181,0.00000543,0.00000147,0.00012929,-0.00003763,-0.00011
 803,-0.00018431,0.00013490,0.00011567,-0.00007697,-0.00000495,0.000067
 76,0.00001130,-0.00000768,-0.00001079,0.00000601,0.00000520,-0.0000132
 3,0.00000101,0.00000327,0.00000368,-0.00604082,0.00145320,0.00505039,-
 0.00658464,0.00982123,-0.00655975,-0.11078316,0.10128598,-0.21513202,0
 .00412828,-0.00118915,-0.00272755,0.00022598,-0.00059433,-0.00036227,0
 .12383743,-0.11097826,0.22228279,0.00104863,0.00084156,0.00024291,0.00
 007027,-0.00008856,-0.00028643,0.00001479,0.00004213,-0.00002066,0.000
 00676,-0.00008599,-0.00043492,-0.00001016,-0.00001893,0.00012775,-0.00
 001367,-0.00004967,0.00008875,0.00003076,-0.00001937,-0.00000467,0.000
 00580,0.00001351,-0.00000532,0.00001201,-0.00000398,-0.00000708,-0.000
 00886,-0.00005383,0.00003505,-0.00000249,0.00000354,-0.00000150,0.0000
 0009,0.00002423,0.00000561,0.00005263,-0.00005025,0.00003248,-0.000053
 46,0.00000922,0.00001445,-0.00000657,0.00005168,-0.00003382,0.00001498
 ,0.00001639,-0.00002124,-0.00000571,0.00000842,-0.00000279,0.00001762,
 0.00001396,0.00001856,-0.00000612,0.00000467,-0.00000447,0.00000624,-0
 .00000204,-0.00001023,-0.00000320,-0.00000853,0.00000843,0.00000520,0.
 00000441,0.00000332,-0.00000274,-0.00001227,-0.00000264,-0.00017041,0.
 00010176,0.00022123,0.00021107,0.00004703,0.00022405,0.00012570,0.0000
 2963,-0.00010390,-0.00001538,0.00001487,0.00001978,-0.00001545,-0.0000
 1357,0.00001506,0.00000565,-0.00001681,-0.00000181,-0.00456180,-0.0015
 9294,0.00398635,-0.00271499,-0.02327282,0.00766108,-0.07478089,-0.0813
 9269,0.01690720,0.00269354,-0.00362026,-0.00779932,0.00116454,0.002029
 05,0.00018118,0.00674209,0.01271388,-0.00450436,0.07103663,-0.00027775
 ,-0.00003428,-0.00002149,-0.00008911,0.00009189,0.00010349,0.00002665,
 -0.00000309,0.00002216,-0.00011054,0.00009816,0.00000441,0.00003583,-0
 .00006260,0.00000045,-0.00004068,0.00001918,-0.00001356,-0.00000385,0.
 00000398,0.00000223,0.00000711,-0.00000283,-0.00000281,0.00000843,0.00
 001317,-0.00000584,-0.00000527,-0.00001480,0.00003490,0.00000151,-0.00
 000380,0.00000070,0.00000675,0.00001626,-0.00000034,-0.00000456,-0.000
 01731,-0.00001553,0.00000156,-0.00000101,-0.00000058,0.00001168,0.0000
 1545,-0.00001829,0.00000033,0.00000720,0.00000721,-0.00000061,0.000006
 02,0.00000074,-0.00000996,0.00000285,-0.00001148,0.00000567,-0.0000031
 9,-0.00000282,-0.00001002,-0.00000764,0.00000127,0.00000280,-0.0000008
 8,0.00000101,-0.00001128,-0.00001271,0.00000276,0.00000302,-0.00000364
 ,-0.00000013,0.00009586,-0.00004739,-0.00001253,0.00001165,-0.00008266
 ,0.00003935,-0.00001877,0.00001188,-0.00000070,0.00000318,-0.00001134,
 -0.00001751,0.00001044,0.00000075,0.00000238,-0.00000567,0.00001615,-0
 .00000404,0.00206848,-0.00299782,-0.00087090,-0.00504145,-0.00973697,0
 .00464370,-0.08563463,-0.29223065,0.08219159,-0.00436005,0.00279385,0.
 00224274,0.00205052,0.00050665,0.00148218,-0.00400976,-0.00465537,0.00
 092839,0.09537110,0.30668762,0.00099089,0.00105734,0.00056606,-0.00027
 472,0.00021662,0.00007164,0.00004338,-0.00001635,0.00003454,-0.0001749
 7,0.00002697,-0.00029090,0.00007984,-0.00012160,0.00010918,-0.00006838
 ,0.00001743,0.00001402,-0.00000148,-0.00001476,-0.00000042,0.00000965,
 -0.00000382,-0.00001182,0.00003500,0.00002845,-0.00002986,0.00001671,0
 .00007294,0.00016100,0.00001461,0.00000102,0.00000549,0.00000658,0.000
 01435,-0.00002522,-0.00008520,-0.00006058,-0.00016060,0.00005820,-0.00
 002355,0.00001404,0.00000065,-0.00003447,0.00002800,0.00001018,0.00000
 475,0.00000268,-0.00001554,0.00002160,-0.00000717,-0.00001270,0.000011
 95,-0.00000947,0.00001385,-0.00001371,-0.00001559,0.00000788,-0.000000
 94,-0.00001033,-0.00000154,0.00000339,-0.00000253,-0.00001299,-0.00001
 020,0.00001505,0.00000179,-0.00000712,-0.00000057,0.00005330,0.0000175
 0,0.00009339,0.00024491,0.00006990,0.00015933,0.00002627,-0.00001878,-
 0.00006398,-0.00000422,-0.00000092,-0.00000785,0.00001178,0.00000606,0
 .00001926,-0.00000370,0.00002573,-0.00002499,0.00152979,-0.00447740,-0
 .00285506,-0.00429097,-0.01380260,0.00977233,0.01965041,0.08635674,-0.
 07540824,-0.00728780,0.00305068,0.00337239,0.00000314,0.00141863,-0.00
 125580,0.00662716,0.01787254,-0.00234738,-0.01729979,-0.09023186,0.067
 93713,0.00018203,-0.00004920,-0.00024264,0.00041186,0.00002396,0.00008
 573,-0.00001605,-0.00001202,0.00001516,-0.00022698,-0.00003644,0.00003
 655,0.00006586,0.00009106,-0.00007779,-0.00001978,-0.00001947,-0.00001
 399,-0.00000252,0.00001661,-0.00000307,0.00002417,0.00000576,0.0000087
 9,-0.00001120,-0.00001561,0.00002672,-0.00004196,-0.00003938,-0.000041
 56,0.00005442,-0.00001293,-0.00003297,-0.00000432,-0.00001252,-0.00000
 025,0.00000832,0.00003576,0.00001741,-0.00000623,0.00001307,-0.0000178
 3,0.00001124,0.00004475,0.00001754,-0.00000573,-0.00000311,0.00001030,
 0.00000144,-0.00000790,0.00000068,-0.00000269,-0.00002030,-0.00000947,
 -0.00000031,0.00000430,0.00000710,0.00000052,0.00000966,0.00001143,0.0
 0000187,0.00000351,-0.00000187,0.00000557,0.00001629,-0.00001164,0.000
 00134,0.00000516,0.00000037,0.00008284,0.00001942,-0.00003642,-0.00005
 836,0.00041302,0.00078827,-0.00002500,-0.00001469,0.00002649,0.0000062
 6,0.00000004,-0.00000132,-0.00000029,0.00000490,-0.00000525,0.00000320
 ,0.00000215,-0.00000488,-0.00144145,-0.00271317,-0.00083360,0.00636933
 ,-0.00438247,0.00995287,0.00038743,-0.00068758,0.00122156,-0.12350171,
 0.05152953,-0.11231479,0.00060901,-0.00029404,0.00088270,0.00005469,-0
 .00008158,-0.00018016,0.00000674,0.00020912,0.00009792,0.13089562,0.00
 007602,0.00071349,0.00004773,0.00003472,0.00023127,-0.00005558,0.00004
 398,-0.00001880,0.00004460,-0.00013709,-0.00010579,-0.00029020,0.00004
 935,-0.00000449,0.00008258,-0.00003646,0.00000302,0.00002243,0.0000065
 4,-0.00000873,-0.00000230,0.00000880,0.00000372,-0.00000623,0.00001896
 ,0.00001101,-0.00002068,0.00000857,0.00001640,0.00007822,-0.00000078,0
 .00000404,0.00000662,0.00000471,0.00001128,-0.00001209,-0.00001882,-0.
 00002329,-0.00005964,0.00001415,-0.00001756,0.00001369,-0.00000694,-0.
 00001578,0.00001497,0.00000781,0.00000670,-0.00000505,-0.00000757,0.00
 001019,-0.00000438,0.00000112,0.00000790,0.00000158,0.00000152,-0.0000
 0404,-0.00000578,0.00000514,0.00000066,-0.00000725,-0.00000149,-0.0000
 0086,0.00000080,-0.00000252,-0.00000403,0.00000509,-0.00000053,-0.0000
 0325,-0.00000089,-0.00003283,0.00007653,0.00011908,0.00062893,-0.00052
 696,0.00020606,0.00004635,0.00000197,-0.00004956,-0.00000775,0.0000032
 6,0.00000543,-0.00000266,-0.00000277,0.00000904,0.00000404,0.00000312,
 -0.00001110,-0.00452302,-0.00294427,-0.00180227,0.01644022,-0.01219521
 ,0.02436328,0.00165826,0.00135213,0.00051279,0.04967454,-0.07977644,0.
 07244451,0.00079962,-0.00185005,0.00208055,-0.00093260,0.00003192,-0.0
 0073238,0.00016274,0.00030277,-0.00019561,-0.05229442,0.08769522,-0.00
 040809,-0.00012642,0.00028192,0.00017909,-0.00006806,0.00028317,-0.000
 02392,0.00000631,-0.00002611,-0.00003530,-0.00004863,0.00024406,0.0000
 0287,0.00010499,-0.00011412,0.00002815,0.00003408,-0.00009577,-0.00003
 030,0.00002247,0.00000989,-0.00000575,-0.00000511,0.00000803,-0.000030
 43,-0.00001954,-0.00000313,0.00001079,0.00000208,-0.00007636,-0.000009
 24,0.00000204,-0.00000074,-0.00000589,-0.00002210,0.00001360,0.0000047
 1,0.00005135,0.00005430,0.00000872,0.00000505,-0.00000811,0.00000023,-
 0.00000886,0.00001267,-0.00000703,-0.00000326,0.00000025,0.00000658,-0
 .00001423,0.00000307,-0.00000332,-0.00000264,-0.00000226,0.00000088,0.
 00000153,0.00000554,-0.00000473,-0.00000049,0.00000670,0.00000237,0.00
 000276,-0.00000312,0.00000027,0.00000326,-0.00000235,0.00000194,0.0000
 0568,0.00000197,0.00008044,0.00000716,-0.00013263,0.00066197,0.0000000
 9,-0.00049009,-0.00009114,-0.00002227,0.00008007,0.00000845,-0.0000071
 1,-0.00000568,0.00000650,0.00000933,-0.00001608,0.00000263,0.00000622,
 0.00000163,0.00039446,-0.00007046,0.00155795,-0.00387953,0.00327912,-0
 .00674119,-0.00032698,-0.00183804,0.00048639,-0.11108962,0.07421876,-0
 .20991090,0.00015602,0.00092836,-0.00053954,0.00033757,0.00018124,0.00
 062978,0.00013043,-0.00013884,0.00001196,0.12179811,-0.08131487,0.2240
 8446,0.00078232,0.00029332,-0.00036262,0.00041528,0.00015175,-0.000011
 61,0.00001355,-0.00002054,0.00003984,-0.00033353,0.00006517,-0.0000356
 4,0.00011267,0.00001094,-0.00004337,-0.00002481,-0.00001432,0.00004530
 ,0.00000829,-0.00000083,-0.00000930,0.00002682,0.00000515,-0.00000013,
 0.00000024,0.00002041,0.00000955,-0.00007522,0.00000676,0.00004383,0.0
 0005542,0.00002136,0.00000482,0.00000073,-0.00000885,-0.00004420,0.000
 00123,0.00000001,-0.00008223,0.00000687,-0.00003681,0.00000639,-0.0000
 0910,-0.00000026,0.00004934,0.00000078,-0.00000616,0.00001410,-0.00000
 653,0.00000335,-0.00000324,0.00000214,-0.00001349,-0.00000739,-0.00000
 386,0.00000032,0.00000277,0.00001069,0.00001678,0.00000505,-0.00000104
 ,0.00000640,-0.00000348,0.00001036,0.00001901,-0.00001067,-0.00000089,
 0.00000524,-0.00000069,0.00015395,-0.00001769,-0.00000967,-0.00007652,
 0.00050454,0.00049010,-0.00002801,-0.00000758,0.00000271,0.00000818,-0
 .00000370,-0.00001409,0.00000854,0.00000383,0.00000357,-0.00000005,0.0
 0001311,-0.00001270,-0.00206751,-0.00042873,-0.00196595,-0.00950119,-0
 .00348207,0.00131268,0.00059155,-0.00135096,0.00189871,-0.28304523,0.0
 1220521,0.06677216,0.00068997,0.00003987,0.00057339,-0.00028183,0.0003
 3755,0.00056996,0.00033100,-0.00058249,-0.00078962,-0.01546715,0.00080
 828,0.00526499,0.30980190,0.00094354,0.00032576,0.00021876,0.00006850,
 -0.00001388,0.00019199,0.00001324,-0.00001449,-0.00002451,-0.00007846,
 0.00001544,-0.00002143,0.00003896,-0.00001543,-0.00001270,0.00000845,-
 0.00000300,-0.00001040,-0.00001602,-0.00000667,-0.00001994,-0.00000312
 ,0.00000188,0.00000006,-0.00003525,0.00001394,0.00015861,-0.00013091,0
 .00006008,-0.00007672,0.00022241,0.00002668,-0.00002916,0.00001867,-0.
 00001028,-0.00006046,-0.00005116,-0.00003394,-0.00011081,0.00002210,-0
 .00003724,-0.00000649,0.00000965,0.00005265,0.00004699,-0.00000549,-0.
 00002054,0.00003547,-0.00000353,0.00000275,-0.00000242,0.00000047,-0.0
 0004607,-0.00001748,-0.00000320,0.00000309,0.00000902,0.00000973,0.000
 03430,0.00002326,0.00000084,0.00000963,-0.00000488,0.00001838,0.000039
 95,-0.00003177,-0.00000035,0.00001009,-0.00000090,0.00007096,0.0000169
 1,-0.00001690,-0.00000135,0.00034876,0.00049840,-0.00002367,-0.0000219
 5,0.00000919,0.00000153,-0.00000398,-0.00000331,0.00000441,0.00000665,
 -0.00000069,-0.00000134,0.00001164,-0.00000694,-0.00117626,0.00026352,
 -0.00105760,-0.03218814,0.00073519,0.00740037,-0.00005982,-0.00331616,
 0.00222833,0.00990075,-0.04644506,-0.00155095,0.00057593,-0.00000687,0
 .00001992,-0.00075856,0.00049615,0.00059821,0.00080664,-0.00131489,-0.
 00202156,0.01013435,-0.00114037,-0.00402412,-0.00941059,0.05079395,-0.
 00071674,-0.00004139,0.00005693,-0.00053404,0.00001227,-0.00026133,0.0
 0003811,0.00000897,-0.00000365,0.00034445,0.00001491,-0.00016962,-0.00
 010506,-0.00011857,0.00013205,0.00002333,0.00004380,0.00007484,0.00001
 868,-0.00003355,-0.00000330,-0.00003368,-0.00001809,-0.00001020,0.0000
 1396,0.00004440,-0.00004004,0.00004139,0.00004502,0.00011152,-0.000043
 89,0.00001516,0.00005932,0.00001827,0.00004159,-0.00001958,-0.00004024
 ,-0.00007809,-0.00008610,0.00002575,-0.00003623,0.00002046,-0.00001253
 ,-0.00005684,-0.00002042,0.00000414,-0.00000005,-0.00000650,-0.0000013
 4,0.00001379,-0.00000208,-0.00000053,0.00002028,0.00000474,0.00000283,
 -0.00000784,-0.00000988,-0.00000131,-0.00000581,-0.00001024,-0.0000013
 7,-0.00000442,0.00000214,-0.00000903,-0.00001897,0.00000984,-0.0000001
 3,-0.00000709,-0.00000103,-0.00019708,0.00001956,0.00011726,0.00005088
 ,0.00030734,-0.00244547,0.00007910,0.00001864,-0.00005400,-0.00001602,
 0.00000455,0.00001530,-0.00000952,-0.00000842,0.00000934,-0.00000447,-
 0.00001012,0.00000659,0.00167229,0.00055098,0.00102164,0.00624813,-0.0
 0078609,-0.00169943,-0.00035035,0.00043450,-0.00040266,0.06785528,-0.0
 0178839,-0.06710877,-0.00060068,-0.00041419,-0.00013256,-0.00002780,0.
 00006236,0.00025863,0.00010935,-0.00011867,0.00027856,-0.02478109,0.00
 049646,0.00835531,-0.07405849,0.00222204,0.06882990,0.00024742,0.00005
 103,-0.00009451,-0.00028148,-0.00000125,-0.00015145,0.00001865,0.00000
 639,-0.00001423,0.00021090,0.00000500,-0.00018274,-0.00005949,-0.00007
 488,0.00009733,0.00000500,-0.00001204,0.00006564,0.00002206,-0.0000223
 0,-0.00001295,-0.00000775,-0.00000162,-0.00000244,0.00001938,0.0000365
 2,0.00003482,-0.00005058,0.00000196,0.00006989,0.00006142,0.00000038,0
 .00001149,0.00001132,0.00001652,-0.00003778,-0.00001551,-0.00004670,-0
 .00008900,0.00000443,-0.00002698,0.00000656,-0.00000194,0.00000553,0.0
 0000582,0.00000200,-0.00000286,0.00000761,-0.00000294,0.00001004,-0.00
 000242,0.00000145,-0.00000695,-0.00000383,-0.00000142,-0.00000145,-0.0
 0000189,0.00000466,0.00000885,0.00000037,-0.00000104,0.00000013,0.0000
 0068,0.00000342,0.00000594,-0.00000579,-0.00000076,-0.00000093,-0.0000
 0151,-0.00014689,0.00003616,0.00009137,-0.00078566,0.00126790,-0.00042
 947,0.00007194,-0.00000546,-0.00004842,-0.00001387,0.00000458,0.000016
 74,-0.00000979,-0.00000262,0.00000882,-0.00000411,-0.00000451,0.000001
 91,0.00029994,0.00059782,0.00002382,-0.00033987,-0.00963574,-0.0104292
 8,0.00001398,-0.00183637,0.00097257,-0.04815498,0.01603743,0.01655630,
 -0.00019556,-0.00024362,0.00012759,0.00064914,-0.00036792,-0.00049333,
 -0.00123082,0.00028473,0.00078971,0.00164795,-0.01249891,-0.01313687,-
 0.00211000,0.02107771,0.02499945,0.05011939,0.00026406,0.00113842,0.00
 096629,0.00047889,0.00008158,0.00046860,0.00002383,-0.00001968,0.00002
 815,-0.00005948,-0.00021353,-0.00001208,0.00001341,0.00019199,-0.00007
 825,-0.00003682,0.00002927,-0.00011107,-0.00003242,0.00002792,0.000015
 62,0.00000353,0.00000990,0.00001008,-0.00002385,-0.00003956,-0.0000294
 5,0.00000953,-0.00005906,-0.00007929,-0.00001708,-0.00000211,-0.000009
 60,-0.00000889,-0.00001557,0.00002666,0.00005753,0.00006109,0.00010490
 ,-0.00003537,0.00001935,-0.00000552,-0.00000422,0.00002404,0.00000617,
 0.00000228,0.00000431,-0.00001398,0.00000209,-0.00001586,0.00000088,0.
 00000842,-0.00000305,0.00000924,-0.00000591,0.00000673,0.00000597,0.00
 000335,-0.00000100,0.00000177,-0.00000182,0.00000008,0.00000003,0.0000
 0840,0.00000820,-0.00000168,-0.00000191,0.00000467,0.00000114,0.000002
 07,0.00014416,-0.00003172,0.00167976,-0.00092707,0.00005533,-0.0000700
 8,-0.00006071,0.00005078,-0.00000371,-0.00000523,0.00000543,0.00000546
 ,0.00001438,-0.00001215,0.00000592,0.00001879,-0.00001160,-0.00250041,
 -0.00051845,-0.00248082,-0.00003763,-0.02006772,-0.02189912,0.00058200
 ,-0.00310213,0.00253246,0.01615950,-0.15481244,-0.12661025,0.00064058,
 0.00051476,0.00076462,0.00059729,-0.00033748,-0.00065774,-0.00200791,0
 .00065100,0.00076125,-0.00188558,0.00815607,0.00886316,0.00084670,-0.0
 0081820,-0.00082379,-0.01466149,0.16991214,-0.00036676,0.00028964,-0.0
 0011782,0.00001734,0.00018002,-0.00004716,0.00000682,-0.00000723,0.000
 02696,-0.00005770,0.00001501,-0.00005249,0.00001389,-0.00000336,0.0000
 1775,0.00001136,-0.00002489,-0.00001283,0.00000494,-0.00000226,0.00000
 620,0.00000567,0.00000406,-0.00000410,0.00000447,-0.00000836,-0.000010
 02,0.00002235,-0.00001280,-0.00001036,-0.00003371,-0.00000301,-0.00000
 616,-0.00000204,0.00000523,0.00002398,0.00001979,-0.00000242,0.0000439
 9,-0.00002118,0.00002210,-0.00000393,0.00000248,0.00001284,-0.00002019
 ,0.00000399,0.00000538,-0.00000962,-0.00000167,0.00000084,-0.00000006,
 0.00000331,0.00000427,0.00000634,-0.00000152,0.00000213,-0.00000136,0.
 00000075,-0.00000669,-0.00000521,-0.00000190,-0.00000341,0.00000287,-0
 .00000076,-0.00000562,0.00000518,-0.00000154,-0.00000312,-0.00000052,-
 0.00001440,0.00000190,0.00004463,0.00011122,0.00037694,-0.00011387,0.0
 0003424,0.00000383,-0.00003626,-0.00000348,0.00000263,0.00000047,-0.00
 000126,-0.00000437,0.00000741,-0.00000036,0.00000008,-0.00000084,-0.00
 095102,-0.00012338,-0.00041643,-0.00269375,0.00558051,0.01018077,0.000
 75396,0.00063348,-0.00000735,0.01688955,-0.12418020,-0.19492356,0.0003
 3298,-0.00018765,0.00021260,0.00019184,0.00000016,0.00016542,0.0005119
 4,-0.00022374,-0.00013830,0.00360488,-0.01597966,-0.01796454,0.0003558
 6,-0.00454847,-0.00687750,-0.01875055,0.13818958,0.21003591||0.0000000
 3,-0.00000014,0.00000018,-0.00000037,-0.00000039,0.00000079,-0.0000012
 8,-0.00000077,0.00000133,-0.00000160,-0.00000148,0.00000020,-0.0000028
 7,0.00000011,-0.00000018,-0.00000090,0.00000011,0.00000161,-0.00000134
 ,-0.00000102,0.00000211,-0.00000027,-0.00000095,0.00000258,-0.00000016
 ,-0.00000099,0.00000182,0.00000139,-0.00000032,0.00000164,0.00000186,-
 0.00000028,0.00000231,-0.00000007,-0.00000020,0.00000043,0.00000127,0.
 00000048,0.00000134,0.00000288,0.,0.00000149,0.00000114,-0.00000020,0.
 00000077,-0.00000159,-0.00000055,0.00000046,-0.00000212,-0.00000055,0.
 00000036,0.00000056,0.00000018,0.00000022,0.00000158,0.00000028,0.0000
 0020,-0.00000141,-0.00000029,-0.00000023,-0.00000228,-0.00000036,-0.00
 000054,-0.00000038,-0.00000004,-0.00000032,-0.00000044,0.00000009,-0.0
 0000068,-0.00000234,0.00000018,-0.00000049,0.00000074,-0.00000029,0.00
 000092,-0.00000281,-0.00000019,-0.00000200,-0.00000295,0.,-0.00000224,
 -0.00000388,-0.00000035,-0.00000121,-0.00000282,0.00000004,-0.00000225
 ,0.00000111,0.00000058,-0.00000086,0.00000191,0.00000067,-0.00000085,0
 .00000220,0.00000126,-0.00000197,0.00000274,0.00000065,-0.00000062,-0.
 00000005,0.00000030,-0.00000104,0.00000303,0.00000139,-0.00000243,0.00
 000164,0.00000109,-0.00000251,0.00000333,0.00000097,-0.00000072,0.0000
 0263,0.00000039,0.00000069,0.00000188,0.00000058,-0.00000033|||@


 A MUSTACHE HAIR ACROSS A CHIP IS LIKE A REDWOOD
 TREE FALLING THROUGH A HOUSING PROJECT.
 - AN IBM MANAGER IN EAST FISHKILL, NEW YORK
   AS QUOTED IN "FROM SANDS TO CIRCUITS", IBM INNOVATION JANUARY 1985.
 Job cpu time:       0 days  0 hours 27 minutes  8.0 seconds.
 File lengths (MBytes):  RWF=    641 Int=      0 D2E=      0 Chk=     14 Scr=      1
 Normal termination of Gaussian 09 at Thu Feb 08 11:43:27 2024.
