 Entering Link 1 = C:\G09W\l1.exe PID=     39912.
  
 Copyright (c) 1988,1990,1992,1993,1995,1998,2003,2009,2013,
            Gaussian, Inc.  All Rights Reserved.
  
 This is part of the Gaussian(R) 09 program.  It is based on
 the Gaussian(R) 03 system (copyright 2003, Gaussian, Inc.),
 the Gaussian(R) 98 system (copyright 1998, Gaussian, Inc.),
 the Gaussian(R) 94 system (copyright 1995, Gaussian, Inc.),
 the Gaussian 92(TM) system (copyright 1992, Gaussian, Inc.),
 the Gaussian 90(TM) system (copyright 1990, Gaussian, Inc.),
 the Gaussian 88(TM) system (copyright 1988, Gaussian, Inc.),
 the Gaussian 86(TM) system (copyright 1986, Carnegie Mellon
 University), and the Gaussian 82(TM) system (copyright 1983,
 Carnegie Mellon University). Gaussian is a federally registered
 trademark of Gaussian, Inc.
  
 This software contains proprietary and confidential information,
 including trade secrets, belonging to Gaussian, Inc.
  
 This software is provided under written license and may be
 used, copied, transmitted, or stored only in accord with that
 written license.
  
 The following legend is applicable only to US Government
 contracts under FAR:
  
                    RESTRICTED RIGHTS LEGEND
  
 Use, reproduction and disclosure by the US Government is
 subject to restrictions as set forth in subparagraphs (a)
 and (c) of the Commercial Computer Software - Restricted
 Rights clause in FAR 52.227-19.
  
 Gaussian, Inc.
 340 Quinnipiac St., Bldg. 40, Wallingford CT 06492
  
  
 ---------------------------------------------------------------
 Warning -- This program may not be used in any manner that
 competes with the business of Gaussian, Inc. or will provide
 assistance to any competitor of Gaussian, Inc.  The licensee
 of this program is prohibited from giving any competitor of
 Gaussian, Inc. access to this program.  By using this program,
 the user acknowledges that Gaussian, Inc. is engaged in the
 business of creating and licensing software in the field of
 computational chemistry and represents and warrants to the
 licensee that it is not a competitor of Gaussian, Inc. and that
 it will not use this program in any manner prohibited above.
 ---------------------------------------------------------------
  

 Cite this work as:
 Gaussian 09, Revision D.01,
 M. J. Frisch, G. W. Trucks, H. B. Schlegel, G. E. Scuseria, 
 M. A. Robb, J. R. Cheeseman, G. Scalmani, V. Barone, B. Mennucci, 
 G. A. Petersson, H. Nakatsuji, M. Caricato, X. Li, H. P. Hratchian, 
 A. F. Izmaylov, J. Bloino, G. Zheng, J. L. Sonnenberg, M. Hada, 
 M. Ehara, K. Toyota, R. Fukuda, J. Hasegawa, M. Ishida, T. Nakajima, 
 Y. Honda, O. Kitao, H. Nakai, T. Vreven, J. A. Montgomery, Jr., 
 J. E. Peralta, F. Ogliaro, M. Bearpark, J. J. Heyd, E. Brothers, 
 K. N. Kudin, V. N. Staroverov, T. Keith, R. Kobayashi, J. Normand, 
 K. Raghavachari, A. Rendell, J. C. Burant, S. S. Iyengar, J. Tomasi, 
 M. Cossi, N. Rega, J. M. Millam, M. Klene, J. E. Knox, J. B. Cross, 
 V. Bakken, C. Adamo, J. Jaramillo, R. Gomperts, R. E. Stratmann, 
 O. Yazyev, A. J. Austin, R. Cammi, C. Pomelli, J. W. Ochterski, 
 R. L. Martin, K. Morokuma, V. G. Zakrzewski, G. A. Voth, 
 P. Salvador, J. J. Dannenberg, S. Dapprich, A. D. Daniels, 
 O. Farkas, J. B. Foresman, J. V. Ortiz, J. Cioslowski, 
 and D. J. Fox, Gaussian, Inc., Wallingford CT, 2013.
 
 ******************************************
 Gaussian 09:  IA32W-G09RevD.01 24-Apr-2013
                02-Feb-2024 
 ******************************************
 %nprocshared=8
 Will use up to    8 processors via shared memory.
 %chk=Preview_1pf8i.chk
 ---------------------------------------------------------------
 #p opt=tight freq b3lyp/6-31g(d,p) guess=save geom=connectivity
 ---------------------------------------------------------------
 1/7=10,14=-1,18=20,19=15,26=3,38=1,57=2/1,3;
 2/9=110,12=2,17=6,18=5,40=1/2;
 3/5=1,6=6,7=101,11=2,16=1,25=1,30=1,71=1,74=-5/1,2,3;
 4//1;
 5/5=2,38=5/2;
 6/7=2,8=2,9=2,10=2,28=1/1;
 7//1,2,3,16;
 1/7=10,14=-1,18=20,19=15,26=3/3(2);
 2/9=110/2;
 99//99;
 2/9=110/2;
 3/5=1,6=6,7=101,11=2,16=1,25=1,30=1,71=1,74=-5/1,2,3;
 4/5=5,16=3,69=1/1;
 5/5=2,38=5/2;
 7//1,2,3,16;
 1/7=10,14=-1,18=20,19=15,26=3/3(-5);
 2/9=110/2;
 6/7=2,8=2,9=2,10=2,19=2,28=1/1;
 99/9=1/99;
 Leave Link    1 at Fri Feb 02 18:46:08 2024, MaxMem=           0 cpu:         0.0
 (Enter C:\G09W\l101.exe)
 --------------------------------
 MATrp OptFreq tight B3LYP/6-31Gd
 --------------------------------
 Symbolic Z-matrix:
 Charge =  0 Multiplicity = 1
 N                     1.89042   0.43519   0.00468 
 C                     1.02163   1.1257   -0.92808 
 H                     1.65812   1.69334  -1.61331 
 C                     0.10842   2.1259   -0.23426 
 O                    -0.54394   2.95334  -0.83323 
 C                     0.1756    0.14839  -1.80787 
 H                    -0.19426  -0.64644  -1.15039 
 H                    -0.69234   0.72667  -2.13934 
 C                     0.89942  -0.4265   -2.9899 
 C                     0.89225   0.08845  -4.26358 
 H                     0.36581   0.95066  -4.65062 
 C                     1.74628  -1.59851  -3.03356 
 N                     1.68636  -0.67997  -5.0937 
 H                     1.79827  -0.53896  -6.0854 
 C                     2.2172   -1.7285   -4.3703 
 C                     2.1395   -2.56118  -2.0843 
 H                     1.79787  -2.49244  -1.05572 
 C                     3.05935  -2.77065  -4.77234 
 H                     3.40663  -2.85189  -5.79934 
 C                     2.97601  -3.59821  -2.48043 
 H                     3.28019  -4.34772  -1.75471 
 C                     3.4328   -3.7018   -3.81055 
 H                     4.08422  -4.5254   -4.08998 
 O                     0.06513   1.96078   1.10446 
 H                     1.54001   0.28371   0.93777 
 C                    -0.86409   2.8089    1.80613 
 H                    -0.69935   2.6083    2.86495 
 H                    -0.67135   3.85865   1.57443 
 H                    -1.88726   2.55219   1.52065 
 C                     3.09614  -0.0736   -0.39147 
 C                     3.89039  -0.78594   0.67764 
 C                     5.07278  -1.29611   0.31686 
 C                     3.34479  -0.8974    2.08133 
 O                     3.50041   0.05118  -1.54695 
 H                     5.70813  -1.82104   1.02491 
 H                     5.42274  -1.18803  -0.70435 
 H                     4.044    -1.43599   2.72729 
 H                     3.17194   0.08961   2.53059 
 H                     2.38899  -1.43883   2.10637 
 
 NAtoms=     39 NQM=       39 NQMF=       0 NMMI=      0 NMMIF=      0
                NMic=       0 NMicF=      0.
                    Isotopes and Nuclear Properties:
 (Nuclear quadrupole moments (NQMom) in fm**2, nuclear magnetic moments (NMagM)
  in nuclear magnetons)

  Atom         1           2           3           4           5           6           7           8           9          10
 IAtWgt=          14          12           1          12          16          12           1           1          12          12
 AtmWgt=  14.0030740  12.0000000   1.0078250  12.0000000  15.9949146  12.0000000   1.0078250   1.0078250  12.0000000  12.0000000
 NucSpn=           2           0           1           0           0           0           1           1           0           0
 AtZEff=   0.0000000   0.0000000   0.0000000   0.0000000   0.0000000   0.0000000   0.0000000   0.0000000   0.0000000   0.0000000
 NQMom=    2.0440000   0.0000000   0.0000000   0.0000000   0.0000000   0.0000000   0.0000000   0.0000000   0.0000000   0.0000000
 NMagM=    0.4037610   0.0000000   2.7928460   0.0000000   0.0000000   0.0000000   2.7928460   2.7928460   0.0000000   0.0000000
 AtZNuc=   7.0000000   6.0000000   1.0000000   6.0000000   8.0000000   6.0000000   1.0000000   1.0000000   6.0000000   6.0000000

  Atom        11          12          13          14          15          16          17          18          19          20
 IAtWgt=           1          12          14           1          12          12           1          12           1          12
 AtmWgt=   1.0078250  12.0000000  14.0030740   1.0078250  12.0000000  12.0000000   1.0078250  12.0000000   1.0078250  12.0000000
 NucSpn=           1           0           2           1           0           0           1           0           1           0
 AtZEff=   0.0000000   0.0000000   0.0000000   0.0000000   0.0000000   0.0000000   0.0000000   0.0000000   0.0000000   0.0000000
 NQMom=    0.0000000   0.0000000   2.0440000   0.0000000   0.0000000   0.0000000   0.0000000   0.0000000   0.0000000   0.0000000
 NMagM=    2.7928460   0.0000000   0.4037610   2.7928460   0.0000000   0.0000000   2.7928460   0.0000000   2.7928460   0.0000000
 AtZNuc=   1.0000000   6.0000000   7.0000000   1.0000000   6.0000000   6.0000000   1.0000000   6.0000000   1.0000000   6.0000000

  Atom        21          22          23          24          25          26          27          28          29          30
 IAtWgt=           1          12           1          16           1          12           1           1           1          12
 AtmWgt=   1.0078250  12.0000000   1.0078250  15.9949146   1.0078250  12.0000000   1.0078250   1.0078250   1.0078250  12.0000000
 NucSpn=           1           0           1           0           1           0           1           1           1           0
 AtZEff=   0.0000000   0.0000000   0.0000000   0.0000000   0.0000000   0.0000000   0.0000000   0.0000000   0.0000000   0.0000000
 NQMom=    0.0000000   0.0000000   0.0000000   0.0000000   0.0000000   0.0000000   0.0000000   0.0000000   0.0000000   0.0000000
 NMagM=    2.7928460   0.0000000   2.7928460   0.0000000   2.7928460   0.0000000   2.7928460   2.7928460   2.7928460   0.0000000
 AtZNuc=   1.0000000   6.0000000   1.0000000   8.0000000   1.0000000   6.0000000   1.0000000   1.0000000   1.0000000   6.0000000

  Atom        31          32          33          34          35          36          37          38          39
 IAtWgt=          12          12          12          16           1           1           1           1           1
 AtmWgt=  12.0000000  12.0000000  12.0000000  15.9949146   1.0078250   1.0078250   1.0078250   1.0078250   1.0078250
 NucSpn=           0           0           0           0           1           1           1           1           1
 AtZEff=   0.0000000   0.0000000   0.0000000   0.0000000   0.0000000   0.0000000   0.0000000   0.0000000   0.0000000
 NQMom=    0.0000000   0.0000000   0.0000000   0.0000000   0.0000000   0.0000000   0.0000000   0.0000000   0.0000000
 NMagM=    0.0000000   0.0000000   0.0000000   0.0000000   2.7928460   2.7928460   2.7928460   2.7928460   2.7928460
 AtZNuc=   6.0000000   6.0000000   6.0000000   8.0000000   1.0000000   1.0000000   1.0000000   1.0000000   1.0000000
 Leave Link  101 at Fri Feb 02 18:46:09 2024, MaxMem=    33554432 cpu:         0.0
 (Enter C:\G09W\l103.exe)

 GradGradGradGradGradGradGradGradGradGradGradGradGradGradGradGradGradGrad
 Berny optimization.
 Initialization pass.
                           ----------------------------
                           !    Initial Parameters    !
                           ! (Angstroms and Degrees)  !
 --------------------------                            --------------------------
 ! Name  Definition              Value          Derivative Info.                !
 --------------------------------------------------------------------------------
 ! R1    R(1,2)                  1.4497         estimate D2E/DX2                !
 ! R2    R(1,25)                 1.0082         estimate D2E/DX2                !
 ! R3    R(1,30)                 1.3673         estimate D2E/DX2                !
 ! R4    R(2,3)                  1.094          estimate D2E/DX2                !
 ! R5    R(2,4)                  1.5218         estimate D2E/DX2                !
 ! R6    R(2,6)                  1.5636         estimate D2E/DX2                !
 ! R7    R(4,5)                  1.212          estimate D2E/DX2                !
 ! R8    R(4,24)                 1.3496         estimate D2E/DX2                !
 ! R9    R(6,7)                  1.0958         estimate D2E/DX2                !
 ! R10   R(6,8)                  1.0944         estimate D2E/DX2                !
 ! R11   R(6,9)                  1.5005         estimate D2E/DX2                !
 ! R12   R(9,10)                 1.3739         estimate D2E/DX2                !
 ! R13   R(9,12)                 1.4466         estimate D2E/DX2                !
 ! R14   R(10,11)                1.0818         estimate D2E/DX2                !
 ! R15   R(10,13)                1.3821         estimate D2E/DX2                !
 ! R16   R(12,15)                1.4232         estimate D2E/DX2                !
 ! R17   R(12,16)                1.408          estimate D2E/DX2                !
 ! R18   R(13,14)                1.0079         estimate D2E/DX2                !
 ! R19   R(13,15)                1.38           estimate D2E/DX2                !
 ! R20   R(15,18)                1.3989         estimate D2E/DX2                !
 ! R21   R(16,17)                1.086          estimate D2E/DX2                !
 ! R22   R(16,20)                1.39           estimate D2E/DX2                !
 ! R23   R(18,19)                1.0872         estimate D2E/DX2                !
 ! R24   R(18,22)                1.3898         estimate D2E/DX2                !
 ! R25   R(20,21)                1.0867         estimate D2E/DX2                !
 ! R26   R(20,22)                1.4102         estimate D2E/DX2                !
 ! R27   R(22,23)                1.0866         estimate D2E/DX2                !
 ! R28   R(24,26)                1.4405         estimate D2E/DX2                !
 ! R29   R(26,27)                1.0902         estimate D2E/DX2                !
 ! R30   R(26,28)                1.0922         estimate D2E/DX2                !
 ! R31   R(26,29)                1.0928         estimate D2E/DX2                !
 ! R32   R(30,31)                1.5104         estimate D2E/DX2                !
 ! R33   R(30,34)                1.2305         estimate D2E/DX2                !
 ! R34   R(31,32)                1.3373         estimate D2E/DX2                !
 ! R35   R(31,33)                1.5101         estimate D2E/DX2                !
 ! R36   R(32,35)                1.0865         estimate D2E/DX2                !
 ! R37   R(32,36)                1.0849         estimate D2E/DX2                !
 ! R38   R(33,37)                1.0937         estimate D2E/DX2                !
 ! R39   R(33,38)                1.0981         estimate D2E/DX2                !
 ! R40   R(33,39)                1.0988         estimate D2E/DX2                !
 ! A1    A(2,1,25)             117.308          estimate D2E/DX2                !
 ! A2    A(2,1,30)             121.2844         estimate D2E/DX2                !
 ! A3    A(25,1,30)            121.2475         estimate D2E/DX2                !
 ! A4    A(1,2,3)              107.5463         estimate D2E/DX2                !
 ! A5    A(1,2,4)              112.2934         estimate D2E/DX2                !
 ! A6    A(1,2,6)              112.8654         estimate D2E/DX2                !
 ! A7    A(3,2,4)              107.0783         estimate D2E/DX2                !
 ! A8    A(3,2,6)              106.6588         estimate D2E/DX2                !
 ! A9    A(4,2,6)              110.0381         estimate D2E/DX2                !
 ! A10   A(2,4,5)              123.1202         estimate D2E/DX2                !
 ! A11   A(2,4,24)             113.0226         estimate D2E/DX2                !
 ! A12   A(5,4,24)             123.8134         estimate D2E/DX2                !
 ! A13   A(2,6,7)              107.3605         estimate D2E/DX2                !
 ! A14   A(2,6,8)              105.6208         estimate D2E/DX2                !
 ! A15   A(2,6,9)              114.9414         estimate D2E/DX2                !
 ! A16   A(7,6,8)              107.2966         estimate D2E/DX2                !
 ! A17   A(7,6,9)              110.9504         estimate D2E/DX2                !
 ! A18   A(8,6,9)              110.2691         estimate D2E/DX2                !
 ! A19   A(6,9,10)             125.7452         estimate D2E/DX2                !
 ! A20   A(6,9,12)             128.0651         estimate D2E/DX2                !
 ! A21   A(10,9,12)            106.1853         estimate D2E/DX2                !
 ! A22   A(9,10,11)            129.2678         estimate D2E/DX2                !
 ! A23   A(9,10,13)            110.2085         estimate D2E/DX2                !
 ! A24   A(11,10,13)           120.5198         estimate D2E/DX2                !
 ! A25   A(9,12,15)            107.2204         estimate D2E/DX2                !
 ! A26   A(9,12,16)            134.1927         estimate D2E/DX2                !
 ! A27   A(15,12,16)           118.5792         estimate D2E/DX2                !
 ! A28   A(10,13,14)           125.2381         estimate D2E/DX2                !
 ! A29   A(10,13,15)           109.1835         estimate D2E/DX2                !
 ! A30   A(14,13,15)           125.4048         estimate D2E/DX2                !
 ! A31   A(12,15,13)           107.1977         estimate D2E/DX2                !
 ! A32   A(12,15,18)           122.4915         estimate D2E/DX2                !
 ! A33   A(13,15,18)           130.3106         estimate D2E/DX2                !
 ! A34   A(12,16,17)           120.4915         estimate D2E/DX2                !
 ! A35   A(12,16,20)           119.0802         estimate D2E/DX2                !
 ! A36   A(17,16,20)           120.4278         estimate D2E/DX2                !
 ! A37   A(15,18,19)           121.2967         estimate D2E/DX2                !
 ! A38   A(15,18,22)           117.5164         estimate D2E/DX2                !
 ! A39   A(19,18,22)           121.1866         estimate D2E/DX2                !
 ! A40   A(16,20,21)           119.5178         estimate D2E/DX2                !
 ! A41   A(16,20,22)           121.2351         estimate D2E/DX2                !
 ! A42   A(21,20,22)           119.2461         estimate D2E/DX2                !
 ! A43   A(18,22,20)           121.0968         estimate D2E/DX2                !
 ! A44   A(18,22,23)           119.4026         estimate D2E/DX2                !
 ! A45   A(20,22,23)           119.5002         estimate D2E/DX2                !
 ! A46   A(4,24,26)            115.5837         estimate D2E/DX2                !
 ! A47   A(24,26,27)           105.5016         estimate D2E/DX2                !
 ! A48   A(24,26,28)           110.4092         estimate D2E/DX2                !
 ! A49   A(24,26,29)           109.7796         estimate D2E/DX2                !
 ! A50   A(27,26,28)           110.8694         estimate D2E/DX2                !
 ! A51   A(27,26,29)           110.6077         estimate D2E/DX2                !
 ! A52   A(28,26,29)           109.6091         estimate D2E/DX2                !
 ! A53   A(1,30,31)            115.7299         estimate D2E/DX2                !
 ! A54   A(1,30,34)            121.6036         estimate D2E/DX2                !
 ! A55   A(31,30,34)           122.6661         estimate D2E/DX2                !
 ! A56   A(30,31,32)           116.994          estimate D2E/DX2                !
 ! A57   A(30,31,33)           120.1837         estimate D2E/DX2                !
 ! A58   A(32,31,33)           122.8222         estimate D2E/DX2                !
 ! A59   A(31,32,35)           121.7021         estimate D2E/DX2                !
 ! A60   A(31,32,36)           120.0743         estimate D2E/DX2                !
 ! A61   A(35,32,36)           118.2232         estimate D2E/DX2                !
 ! A62   A(31,33,37)           110.7538         estimate D2E/DX2                !
 ! A63   A(31,33,38)           111.7655         estimate D2E/DX2                !
 ! A64   A(31,33,39)           111.8284         estimate D2E/DX2                !
 ! A65   A(37,33,38)           107.555          estimate D2E/DX2                !
 ! A66   A(37,33,39)           107.4571         estimate D2E/DX2                !
 ! A67   A(38,33,39)           107.256          estimate D2E/DX2                !
 ! D1    D(25,1,2,3)           148.3968         estimate D2E/DX2                !
 ! D2    D(25,1,2,4)            30.8465         estimate D2E/DX2                !
 ! D3    D(25,1,2,6)           -94.2394         estimate D2E/DX2                !
 ! D4    D(30,1,2,3)           -36.1475         estimate D2E/DX2                !
 ! D5    D(30,1,2,4)          -153.6978         estimate D2E/DX2                !
 ! D6    D(30,1,2,6)            81.2163         estimate D2E/DX2                !
 ! D7    D(2,1,30,31)         -179.1405         estimate D2E/DX2                !
 ! D8    D(2,1,30,34)            1.112          estimate D2E/DX2                !
 ! D9    D(25,1,30,31)          -3.8639         estimate D2E/DX2                !
 ! D10   D(25,1,30,34)         176.3886         estimate D2E/DX2                !
 ! D11   D(1,2,4,5)            168.1583         estimate D2E/DX2                !
 ! D12   D(1,2,4,24)           -14.165          estimate D2E/DX2                !
 ! D13   D(3,2,4,5)             50.33           estimate D2E/DX2                !
 ! D14   D(3,2,4,24)          -131.9933         estimate D2E/DX2                !
 ! D15   D(6,2,4,5)            -65.2183         estimate D2E/DX2                !
 ! D16   D(6,2,4,24)           112.4584         estimate D2E/DX2                !
 ! D17   D(1,2,6,7)             42.8081         estimate D2E/DX2                !
 ! D18   D(1,2,6,8)            157.0672         estimate D2E/DX2                !
 ! D19   D(1,2,6,9)            -81.1471         estimate D2E/DX2                !
 ! D20   D(3,2,6,7)            160.6938         estimate D2E/DX2                !
 ! D21   D(3,2,6,8)            -85.0472         estimate D2E/DX2                !
 ! D22   D(3,2,6,9)             36.7385         estimate D2E/DX2                !
 ! D23   D(4,2,6,7)            -83.4934         estimate D2E/DX2                !
 ! D24   D(4,2,6,8)             30.7657         estimate D2E/DX2                !
 ! D25   D(4,2,6,9)            152.5513         estimate D2E/DX2                !
 ! D26   D(2,4,24,26)         -175.2559         estimate D2E/DX2                !
 ! D27   D(5,4,24,26)            2.4021         estimate D2E/DX2                !
 ! D28   D(2,6,9,10)           -93.415          estimate D2E/DX2                !
 ! D29   D(2,6,9,12)            85.7122         estimate D2E/DX2                !
 ! D30   D(7,6,9,10)           144.5507         estimate D2E/DX2                !
 ! D31   D(7,6,9,12)           -36.3221         estimate D2E/DX2                !
 ! D32   D(8,6,9,10)            25.8148         estimate D2E/DX2                !
 ! D33   D(8,6,9,12)          -155.058          estimate D2E/DX2                !
 ! D34   D(6,9,10,11)           -1.8966         estimate D2E/DX2                !
 ! D35   D(6,9,10,13)          178.8406         estimate D2E/DX2                !
 ! D36   D(12,9,10,11)         178.8189         estimate D2E/DX2                !
 ! D37   D(12,9,10,13)          -0.4439         estimate D2E/DX2                !
 ! D38   D(6,9,12,15)         -179.2265         estimate D2E/DX2                !
 ! D39   D(6,9,12,16)            1.8333         estimate D2E/DX2                !
 ! D40   D(10,9,12,15)           0.0359         estimate D2E/DX2                !
 ! D41   D(10,9,12,16)        -178.9043         estimate D2E/DX2                !
 ! D42   D(9,10,13,14)         176.1204         estimate D2E/DX2                !
 ! D43   D(9,10,13,15)           0.7026         estimate D2E/DX2                !
 ! D44   D(11,10,13,14)         -3.2171         estimate D2E/DX2                !
 ! D45   D(11,10,13,15)       -178.6349         estimate D2E/DX2                !
 ! D46   D(9,12,15,13)           0.3785         estimate D2E/DX2                !
 ! D47   D(9,12,15,18)        -179.4726         estimate D2E/DX2                !
 ! D48   D(16,12,15,13)        179.5131         estimate D2E/DX2                !
 ! D49   D(16,12,15,18)         -0.3379         estimate D2E/DX2                !
 ! D50   D(9,12,16,17)          -1.1117         estimate D2E/DX2                !
 ! D51   D(9,12,16,20)         179.1598         estimate D2E/DX2                !
 ! D52   D(15,12,16,17)       -179.9589         estimate D2E/DX2                !
 ! D53   D(15,12,16,20)          0.3126         estimate D2E/DX2                !
 ! D54   D(10,13,15,12)         -0.6562         estimate D2E/DX2                !
 ! D55   D(10,13,15,18)        179.1791         estimate D2E/DX2                !
 ! D56   D(14,13,15,12)       -176.0646         estimate D2E/DX2                !
 ! D57   D(14,13,15,18)          3.7707         estimate D2E/DX2                !
 ! D58   D(12,15,18,19)        179.9252         estimate D2E/DX2                !
 ! D59   D(12,15,18,22)          0.1236         estimate D2E/DX2                !
 ! D60   D(13,15,18,19)          0.1117         estimate D2E/DX2                !
 ! D61   D(13,15,18,22)       -179.6898         estimate D2E/DX2                !
 ! D62   D(12,16,20,21)       -179.717          estimate D2E/DX2                !
 ! D63   D(12,16,20,22)         -0.0908         estimate D2E/DX2                !
 ! D64   D(17,16,20,21)          0.5544         estimate D2E/DX2                !
 ! D65   D(17,16,20,22)       -179.8195         estimate D2E/DX2                !
 ! D66   D(15,18,22,20)          0.1108         estimate D2E/DX2                !
 ! D67   D(15,18,22,23)        179.8487         estimate D2E/DX2                !
 ! D68   D(19,18,22,20)       -179.691          estimate D2E/DX2                !
 ! D69   D(19,18,22,23)          0.0469         estimate D2E/DX2                !
 ! D70   D(16,20,22,18)         -0.1288         estimate D2E/DX2                !
 ! D71   D(16,20,22,23)       -179.8665         estimate D2E/DX2                !
 ! D72   D(21,20,22,18)        179.4983         estimate D2E/DX2                !
 ! D73   D(21,20,22,23)         -0.2393         estimate D2E/DX2                !
 ! D74   D(4,24,26,27)        -174.8917         estimate D2E/DX2                !
 ! D75   D(4,24,26,28)         -55.0473         estimate D2E/DX2                !
 ! D76   D(4,24,26,29)          65.9058         estimate D2E/DX2                !
 ! D77   D(1,30,31,32)         179.8603         estimate D2E/DX2                !
 ! D78   D(1,30,31,33)          -0.2099         estimate D2E/DX2                !
 ! D79   D(34,30,31,32)         -0.3952         estimate D2E/DX2                !
 ! D80   D(34,30,31,33)        179.5346         estimate D2E/DX2                !
 ! D81   D(30,31,32,35)        179.8175         estimate D2E/DX2                !
 ! D82   D(30,31,32,36)          0.0704         estimate D2E/DX2                !
 ! D83   D(33,31,32,35)         -0.1103         estimate D2E/DX2                !
 ! D84   D(33,31,32,36)       -179.8574         estimate D2E/DX2                !
 ! D85   D(30,31,33,37)       -179.7323         estimate D2E/DX2                !
 ! D86   D(30,31,33,38)        -59.824          estimate D2E/DX2                !
 ! D87   D(30,31,33,39)         60.4416         estimate D2E/DX2                !
 ! D88   D(32,31,33,37)          0.1933         estimate D2E/DX2                !
 ! D89   D(32,31,33,38)        120.1016         estimate D2E/DX2                !
 ! D90   D(32,31,33,39)       -119.6328         estimate D2E/DX2                !
 --------------------------------------------------------------------------------
 Trust Radius=3.00D-01 FncErr=1.00D-07 GrdErr=1.00D-06
 Number of steps in this run=    207 maximum allowed number of steps=    234.
 GradGradGradGradGradGradGradGradGradGradGradGradGradGradGradGradGradGrad

 Leave Link  103 at Fri Feb 02 18:46:09 2024, MaxMem=    33554432 cpu:         0.0
 (Enter C:\G09W\l202.exe)
                          Input orientation:                          
 ---------------------------------------------------------------------
 Center     Atomic      Atomic             Coordinates (Angstroms)
 Number     Number       Type             X           Y           Z
 ---------------------------------------------------------------------
      1          7           0        1.890419    0.435187    0.004676
      2          6           0        1.021634    1.125700   -0.928079
      3          1           0        1.658124    1.693337   -1.613311
      4          6           0        0.108418    2.125905   -0.234262
      5          8           0       -0.543943    2.953338   -0.833230
      6          6           0        0.175600    0.148387   -1.807869
      7          1           0       -0.194263   -0.646435   -1.150393
      8          1           0       -0.692343    0.726673   -2.139337
      9          6           0        0.899418   -0.426496   -2.989897
     10          6           0        0.892248    0.088454   -4.263581
     11          1           0        0.365809    0.950661   -4.650616
     12          6           0        1.746275   -1.598514   -3.033559
     13          7           0        1.686362   -0.679968   -5.093702
     14          1           0        1.798265   -0.538960   -6.085402
     15          6           0        2.217200   -1.728499   -4.370297
     16          6           0        2.139496   -2.561185   -2.084298
     17          1           0        1.797867   -2.492441   -1.055715
     18          6           0        3.059348   -2.770646   -4.772339
     19          1           0        3.406631   -2.851892   -5.799342
     20          6           0        2.976011   -3.598212   -2.480426
     21          1           0        3.280194   -4.347718   -1.754706
     22          6           0        3.432800   -3.701804   -3.810549
     23          1           0        4.084222   -4.525402   -4.089982
     24          8           0        0.065134    1.960778    1.104458
     25          1           0        1.540008    0.283709    0.937770
     26          6           0       -0.864094    2.808902    1.806125
     27          1           0       -0.699352    2.608295    2.864954
     28          1           0       -0.671346    3.858649    1.574432
     29          1           0       -1.887255    2.552194    1.520654
     30          6           0        3.096143   -0.073601   -0.391471
     31          6           0        3.890391   -0.785942    0.677635
     32          6           0        5.072782   -1.296112    0.316863
     33          6           0        3.344793   -0.897399    2.081333
     34          8           0        3.500411    0.051176   -1.546949
     35          1           0        5.708130   -1.821041    1.024912
     36          1           0        5.422741   -1.188030   -0.704346
     37          1           0        4.043996   -1.435994    2.727285
     38          1           0        3.171939    0.089607    2.530585
     39          1           0        2.388992   -1.438825    2.106369
 ---------------------------------------------------------------------
                    Distance matrix (angstroms):
                    1          2          3          4          5
     1  N    0.000000
     2  C    1.449699   0.000000
     3  H    2.062713   1.094017   0.000000
     4  C    2.468025   1.521761   2.119075   0.000000
     5  O    3.601290   2.408379   2.654285   1.212016   0.000000
     6  C    2.511609   1.563632   2.150023   2.528108   3.055391
     7  H    2.617248   2.160623   3.019961   2.935436   3.630597
     8  H    3.369334   2.136372   2.595349   2.495672   2.585725
     9  C    3.269870   2.583668   2.638999   3.838484   4.261195
    10  C    4.397111   3.495453   3.191574   4.582685   4.694412
    11  H    4.925636   3.783917   3.383322   4.577295   4.405768
    12  C    3.658905   3.518450   3.586245   4.938617   5.550306
    13  N    5.222898   4.588541   4.212659   5.828978   6.027171
    14  H    6.168185   5.474690   5.000239   6.647776   6.728105
    15  C    4.891698   4.628682   4.429729   6.034085   6.484933
    16  C    3.661160   4.022384   4.307494   5.432929   6.259072
    17  H    3.115125   3.702671   4.225066   4.985794   5.932123
    18  C    5.870574   5.840559   5.645355   7.299202   7.827150
    19  H    6.840352   6.725969   6.421779   8.162523   8.600581
    20  C    4.860304   5.342726   5.521703   6.784826   7.617489
    21  H    5.282336   5.978521   6.256632   7.367476   8.293284
    22  C    5.835202   6.117774   6.089736   7.602864   8.304808
    23  H    6.796061   7.163242   7.119871   8.655257   9.378587
    24  O    2.620804   2.396550   3.161552   1.349560   2.260705
    25  H    1.008166   2.111647   2.917022   2.610899   3.821807
    26  C    4.057965   3.723575   4.393018   2.361238   2.662621
    27  H    4.428375   4.421197   5.142927   3.238878   3.717495
    28  H    4.554873   4.074034   4.502967   2.623320   2.575394
    29  H    4.588107   4.061135   4.809271   2.691498   2.739740
    30  C    1.367321   2.455577   2.585123   3.713360   4.754759
    31  C    2.438015   3.802954   4.047008   4.859396   5.994018
    32  C    3.636247   4.881276   4.931761   6.054655   7.136395
    33  C    2.864174   4.306571   4.817381   4.997646   6.200413
    34  O    2.268717   2.771631   2.468829   4.187274   5.028791
    35  H    4.550425   5.870324   5.976088   6.965678   8.083057
    36  H    3.951562   4.977263   4.827094   6.280539   7.264218
    37  H    3.943579   5.390606   5.858828   6.078376   7.279608
    38  H    2.853408   4.202339   4.694194   4.601744   5.772693
    39  H    2.859652   4.201706   4.917380   4.835997   6.044373
                    6          7          8          9         10
     6  C    0.000000
     7  H    1.095817   0.000000
     8  H    1.094354   1.763950   0.000000
     9  C    1.500531   2.151345   2.141718   0.000000
    10  C    2.558846   3.378240   2.725924   1.373862   0.000000
    11  H    2.959904   3.887925   2.734297   2.222451   1.081820
    12  C    2.649717   2.866785   3.486113   1.446616   2.255699
    13  N    3.710158   4.368931   4.045386   2.260426   1.382097
    14  H    4.626314   5.323160   4.834914   3.225326   2.129214
    15  C    3.775827   4.165789   4.412538   2.310252   2.251268
    16  C    3.357839   3.159885   4.339626   2.629600   3.650409
    17  H    3.189272   2.717587   4.211659   2.969241   4.215633
    18  C    5.062098   5.311944   5.765339   3.652046   3.623481
    19  H    5.947528   6.280383   6.557694   4.479023   4.162490
    20  C    4.725636   4.531292   5.681355   3.825125   4.594912
    21  H    5.464091   5.112390   6.455884   4.750765   5.628176
    22  C    5.426238   5.437582   6.278628   4.221272   4.585379
    23  H    6.506125   6.480200   7.362396   5.306052   5.613065
    24  O    3.431998   3.456762   3.552322   4.812364   5.745046
    25  H    3.068950   2.869371   3.827296   4.042439   5.245166
    26  C    4.606545   4.596632   4.464509   6.048107   6.879455
    27  H    5.352753   5.193399   5.346351   6.785669   7.726499
    28  H    5.091495   5.286593   4.858167   6.454678   7.123313
    29  H    4.594858   4.497993   4.260971   6.081382   6.874083
    30  C    3.253465   3.425036   4.248305   3.420812   4.458324
    31  C    4.566221   4.477225   5.587914   4.746147   5.845429
    32  C    5.530231   5.506059   6.584925   5.395170   6.354082
    33  C    5.124778   4.799161   6.062188   5.649688   6.873486
    34  O    3.336450   3.780811   4.287937   3.012546   3.766164
    35  H    6.520137   6.399210   7.580855   6.417722   7.403178
    36  H    5.525963   5.660655   6.566547   5.124854   5.901096
    37  H    6.167850   5.798502   7.126994   6.602547   7.818546
    38  H    5.272920   5.042090   6.094809   5.992198   7.166427
    39  H    4.768606   4.231735   5.675387   5.405142   6.719307
                   11         12         13         14         15
    11  H    0.000000
    12  C    3.319466   0.000000
    13  N    2.144560   2.256436   0.000000
    14  H    2.515853   3.230960   1.007906   0.000000
    15  C    3.268659   1.423213   1.380044   2.128872   0.000000
    16  C    4.697341   1.407997   3.577823   4.496072   2.434172
    17  H    5.179677   2.171090   4.427508   5.395724   3.427229
    18  C    4.595443   2.474149   2.521765   2.880084   1.398900
    19  H    5.002558   3.460823   2.859110   2.831665   2.172309
    20  C    5.675837   2.411846   4.124143   4.872572   2.764640
    21  H    6.704682   3.398014   5.209758   5.954635   3.851179
    22  C    5.635387   2.805693   3.718605   4.224955   2.384310
    23  H    6.642904   3.892133   4.641610   5.009892   3.374465
    24  O    5.850779   5.711215   6.929582   7.806825   6.943709
    25  H    5.749228   4.399632   6.109725   7.075905   5.716917
    26  C    6.830463   7.047119   8.141538   8.976221   8.260180
    27  H    7.769563   7.646619   8.935575   9.810820   8.925408
    28  H    6.948619   7.540497   8.403680   9.171205   8.654463
    29  H    6.762083   7.153445   8.183356   8.999466   8.359078
    30  C    5.161797   3.335885   4.946325   5.858489   4.397986
    31  C    6.620327   4.362392   6.178778   7.083549   5.400889
    32  C    7.202738   4.731006   6.412619   7.230819   5.505522
    33  C    7.590047   5.404530   7.367414   8.319603   6.601948
    34  O    4.501950   2.829925   4.050284   4.882941   3.575635
    35  H    8.272505   5.676002   7.410405   8.215068   6.426775
    36  H    6.761628   4.371514   5.786631   6.520267   4.899673
    37  H    8.582459   6.204293   8.203526   9.138459   7.334740
    38  H    7.757927   5.986816   7.805699   8.747417   7.199945
    39  H    7.447131   5.182417   7.273965   8.262193   6.485416
                   16         17         18         19         20
    16  C    0.000000
    17  H    1.086010   0.000000
    18  C    2.848784   3.934721   0.000000
    19  H    3.935949   5.021884   1.087171   0.000000
    20  C    1.390000   2.154195   2.438171   3.428940   0.000000
    21  H    2.145116   2.475466   3.412043   4.314228   1.086718
    22  C    2.439999   3.424132   1.389807   2.162945   1.410183
    23  H    3.415096   4.308959   2.143629   2.486297   2.162980
    24  O    5.909254   5.244032   8.117169   9.054825   7.226823
    25  H    4.193531   3.427460   6.651528   7.661916   5.368005
    26  C    7.279751   6.586380   9.476336  10.398404   8.612319
    27  H    7.699199   6.901106  10.069214  11.033710   8.977868
    28  H    7.905783   7.304179   9.906924  10.771899   9.238499
    29  H    7.440231   6.757673   9.612662  10.526715   8.802698
    30  C    3.157358   2.824452   5.144649   6.087723   4.098908
    31  C    3.720940   3.208629   5.859343   6.815673   4.326465
    32  C    3.996267   3.747032   5.668170   6.527210   4.185802
    33  C    4.644718   3.844244   7.110792   8.119662   5.314136
    34  O    2.994205   3.099993   4.308174   5.149703   3.803210
    35  H    4.790631   4.479950   6.444061   7.275300   4.786461
    36  H    3.817004   3.868419   4.963756   5.726440   3.866513
    37  H    5.295706   4.524629   7.680833   8.666854   5.738992
    38  H    5.421234   4.627807   7.843878   8.837148   6.224840
    39  H    4.345530   3.385013   7.038448   8.095222   5.103551
                   21         22         23         24         25
    21  H    0.000000
    22  C    2.160321   0.000000
    23  H    2.476196   1.086621   0.000000
    24  O    7.636003   8.219690   9.230699   0.000000
    25  H    5.632742   6.481783   7.408027   2.239553   0.000000
    26  C    9.003991   9.612472  10.632118   1.440526   3.593097
    27  H    9.250090  10.072456  11.051848   2.025602   3.759318
    28  H    9.697540  10.149014  11.180041   2.089304   4.251543
    29  H    9.221675   9.789648  10.827287   2.082022   4.151134
    30  C    4.490029   4.996728   5.871441   3.945062   2.077525
    31  C    4.356015   5.371726   6.062286   4.728556   2.595404
    32  C    4.100862   5.050983   5.552103   6.025295   3.919420
    33  C    5.159851   6.525849   7.196825   4.458657   2.441311
    34  O    4.409300   4.383300   5.268104   4.741062   3.173496
    35  H    4.472722   5.665340   6.009392   6.793518   4.670204
    36  H    3.959468   4.464014   4.938848   6.472304   4.465218
    37  H    5.399053   6.946275   7.484731   5.477497   3.525578
    38  H    6.169707   7.392755   8.121729   3.897096   2.288653
    39  H    4.915669   6.420322   7.127098   4.238094   2.248004
                   26         27         28         29         30
    26  C    0.000000
    27  H    1.090184   0.000000
    28  H    1.092155   1.797113   0.000000
    29  H    1.092818   1.794827   1.785540   0.000000
    30  C    5.368587   5.674738   5.789761   5.948553   0.000000
    31  C    6.066426   6.113178   6.571599   6.725699   1.510380
    32  C    7.369908   7.419885   7.819722   8.043674   2.429686
    33  C    5.614903   5.409165   6.245503   6.291930   2.618249
    34  O    6.156059   6.606191   6.453172   6.685224   1.230500
    35  H    8.077177   8.003786   8.559122   8.778429   3.447051
    36  H    7.861439   8.039404   8.234057   8.507405   2.598634
    37  H    6.554161   6.234948   7.183089   7.248541   3.532871
    38  H    4.920261   4.630603   5.467243   5.716620   2.927592
    39  H    5.358722   5.147087   6.140998   5.878570   2.933105
                   31         32         33         34         35
    31  C    0.000000
    32  C    1.337340   0.000000
    33  C    1.510122   2.501654   0.000000
    34  O    2.408656   2.785916   3.753457   0.000000
    35  H    2.120426   1.086532   2.748545   3.872168   0.000000
    36  H    2.102295   1.084906   3.487455   2.437409   1.863460
    37  H    2.155743   2.624519   1.093720   4.558096   2.411571
    38  H    2.171677   3.230168   1.098129   4.090923   3.514241
    39  H    2.172956   3.228843   1.098783   4.099035   3.511740
                   36         37         38         39
    36  H    0.000000
    37  H    3.706550   0.000000
    38  H    4.142855   1.768229   0.000000
    39  H    4.143266   1.767649   1.768918   0.000000
 Stoichiometry    C16H18N2O3
 Framework group  C1[X(C16H18N2O3)]
 Deg. of freedom   111
 Full point group                 C1      NOp   1
 Largest Abelian subgroup         C1      NOp   1
 Largest concise Abelian subgroup C1      NOp   1
                         Standard orientation:                         
 ---------------------------------------------------------------------
 Center     Atomic      Atomic             Coordinates (Angstroms)
 Number     Number       Type             X           Y           Z
 ---------------------------------------------------------------------
      1          7           0       -1.432391    0.752772   -0.130164
      2          6           0       -1.586817   -0.680601   -0.282548
      3          1           0       -1.260071   -0.941915   -1.293403
      4          6           0       -3.037487   -1.121862   -0.153715
      5          8           0       -3.420581   -2.232849   -0.450246
      6          6           0       -0.688962   -1.496685    0.703762
      7          1           0       -0.750093   -1.007580    1.682463
      8          1           0       -1.169421   -2.475351    0.798533
      9          6           0        0.739297   -1.658301    0.273007
     10          6           0        1.248567   -2.719025   -0.436221
     11          1           0        0.749706   -3.614934   -0.780923
     12          6           0        1.844791   -0.751107    0.491137
     13          7           0        2.594964   -2.526645   -0.681982
     14          1           0        3.203801   -3.189443   -1.135734
     15          6           0        2.992830   -1.331927   -0.117295
     16          6           0        1.985526    0.483072    1.154049
     17          1           0        1.130169    0.953823    1.629628
     18          6           0        4.250324   -0.719808   -0.086651
     19          1           0        5.114846   -1.181620   -0.557048
     20          6           0        3.233667    1.093956    1.186669
     21          1           0        3.351354    2.044362    1.700317
     22          6           0        4.354930    0.499748    0.571606
     23          1           0        5.317997    1.001004    0.616219
     24          8           0       -3.835168   -0.167029    0.369076
     25          1           0       -2.085238    1.226608    0.474540
     26          6           0       -5.198690   -0.561436    0.614771
     27          1           0       -5.709507    0.344305    0.942185
     28          1           0       -5.651551   -0.955291   -0.297697
     29          1           0       -5.227889   -1.323731    1.397270
     30          6           0       -0.387134    1.419571   -0.706694
     31          6           0       -0.337078    2.907214   -0.450457
     32          6           0        0.676830    3.584094   -1.000278
     33          6           0       -1.401435    3.568749    0.392148
     34          8           0        0.450783    0.835229   -1.392677
     35          1           0        0.785472    4.657037   -0.867839
     36          1           0        1.416043    3.063728   -1.600115
     37          1           0       -1.218746    4.644047    0.473288
     38          1           0       -2.402959    3.434449   -0.037735
     39          1           0       -1.427151    3.160883    1.412103
 ---------------------------------------------------------------------
 Rotational constants (GHZ):      0.4556788      0.2322802      0.1684391
 Leave Link  202 at Fri Feb 02 18:46:09 2024, MaxMem=    33554432 cpu:         0.0
 (Enter C:\G09W\l301.exe)
 Standard basis: 6-31G(d,p) (6D, 7F)
 Ernie: Thresh=  0.10000D-02 Tol=  0.10000D-05 Strict=F.
 There are   405 symmetry adapted cartesian basis functions of A   symmetry.
 There are   405 symmetry adapted basis functions of A   symmetry.
   405 basis functions,   714 primitive gaussians,   405 cartesian basis functions
    76 alpha electrons       76 beta electrons
       nuclear repulsion energy      1684.6259217206 Hartrees.
 IExCor=  402 DFT=T Ex+Corr=B3LYP ExCW=0 ScaHFX=  0.200000
 ScaDFX=  0.800000  0.720000  1.000000  0.810000 ScalE2=  1.000000  1.000000
 IRadAn=      0 IRanWt=     -1 IRanGd=            0 ICorTp=0 IEmpDi=  4
 NAtoms=   39 NActive=   39 NUniq=   39 SFac= 1.00D+00 NAtFMM=   60 NAOKFM=F Big=F
 Integral buffers will be    262144 words long.
 Raffenetti 2 integral format.
 Two-electron integral symmetry is turned on.
 Leave Link  301 at Fri Feb 02 18:46:09 2024, MaxMem=    33554432 cpu:         0.0
 (Enter C:\G09W\l302.exe)
 NPDir=0 NMtPBC=     1 NCelOv=     1 NCel=       1 NClECP=     1 NCelD=      1
         NCelK=      1 NCelE2=     1 NClLst=     1 CellRange=     0.0.
 One-electron integrals computed using PRISM.
 NBasis=   405 RedAO= T EigKep=  3.67D-04  NBF=   405
 NBsUse=   405 1.00D-06 EigRej= -1.00D+00 NBFU=   405
 Precomputing XC quadrature grid using
 IXCGrd= 4 IRadAn=           0 IRanWt=          -1 IRanGd=           0 AccXCQ= 0.00D+00.
 Generated NRdTot=       0 NPtTot=           0 NUsed=           0 NTot=          16
 NSgBfM=   400   400   400   400   400 MxSgAt=    39 MxSgA2=    39.
 Leave Link  302 at Fri Feb 02 18:46:10 2024, MaxMem=    33554432 cpu:         1.0
 (Enter C:\G09W\l303.exe)
 DipDrv:  MaxL=1.
 Leave Link  303 at Fri Feb 02 18:46:10 2024, MaxMem=    33554432 cpu:         0.0
 (Enter C:\G09W\l401.exe)
 ExpMin= 1.61D-01 ExpMax= 5.48D+03 ExpMxC= 8.25D+02 IAcc=1 IRadAn=         1 AccDes= 0.00D+00
 Harris functional with IExCor=  402 and IRadAn=       1 diagonalized for initial guess.
 HarFok:  IExCor=  402 AccDes= 0.00D+00 IRadAn=         1 IDoV= 1 UseB2=F ITyADJ=14
 ICtDFT=  3500011 ScaDFX=  1.000000  1.000000  1.000000  1.000000
 FoFCou: FMM=F IPFlag=           0 FMFlag=      100000 FMFlg1=           0
         NFxFlg=           0 DoJE=T BraDBF=F KetDBF=T FulRan=T
         wScrn=  0.000000 ICntrl=     500 IOpCl=  0 I1Cent=   200000004 NGrid=           0
         NMat0=    1 NMatS0=      1 NMatT0=    0 NMatD0=    1 NMtDS0=    0 NMtDT0=    0
 Petite list used in FoFCou.
 Harris En= -955.784409129321    
 JPrj=0 DoOrth=F DoCkMO=F.
 Leave Link  401 at Fri Feb 02 18:46:12 2024, MaxMem=    33554432 cpu:         2.0
 (Enter C:\G09W\l502.exe)
 Closed shell SCF:
 Using DIIS extrapolation, IDIIS=  1040.
 Integral symmetry usage will be decided dynamically.
 IVT=      516292 IEndB=      516292 NGot=    33554432 MDV=    33219211
 LenX=    33219211 LenY=    33054745
 Requested convergence on RMS density matrix=1.00D-08 within 128 cycles.
 Requested convergence on MAX density matrix=1.00D-06.
 Requested convergence on             energy=1.00D-06.
 No special actions if energy rises.
 Fock matrices will be formed incrementally for  20 cycles.
 Integral accuracy reduced to 1.0D-05 until final iterations.

 Cycle   1  Pass 0  IDiag  1:
 FoFJK:  IHMeth= 1 ICntrl=       0 DoSepK=F KAlg= 0 I1Cent=   0 FoldK=F
 IRaf= 710000000 NMat=   1 IRICut=       1 DoRegI=T DoRafI=F ISym2E= 0.
 FoFCou: FMM=F IPFlag=           0 FMFlag=      100000 FMFlg1=           0
         NFxFlg=           0 DoJE=F BraDBF=F KetDBF=F FulRan=T
         wScrn=  0.000000 ICntrl=       0 IOpCl=  0 I1Cent=           0 NGrid=           0
         NMat0=    1 NMatS0=      1 NMatT0=    0 NMatD0=    1 NMtDS0=    0 NMtDT0=    0
 Symmetry not used in FoFCou.
 E= -955.191924030223    
 DIIS: error= 2.16D-02 at cycle   1 NSaved=   1.
 NSaved= 1 IEnMin= 1 EnMin= -955.191924030223     IErMin= 1 ErrMin= 2.16D-02
 ErrMax= 2.16D-02  0.00D+00 EMaxC= 1.00D-01 BMatC= 5.75D-01 BMatP= 5.75D-01
 IDIUse=3 WtCom= 7.84D-01 WtEn= 2.16D-01
 Coeff-Com:  0.100D+01
 Coeff-En:   0.100D+01
 Coeff:      0.100D+01
 Gap=     0.158 Goal=   None    Shift=    0.000
 GapD=    0.158 DampG=1.000 DampE=0.500 DampFc=0.5000 IDamp=-1.
 Damping current iteration by 5.00D-01
 RMSDP=5.10D-03 MaxDP=2.54D-01              OVMax= 3.13D-01

 Cycle   2  Pass 0  IDiag  1:
 RMSU=  2.54D-03    CP:  9.84D-01
 E= -955.334410176496     Delta-E=       -0.142486146273 Rises=F Damp=T
 DIIS: error= 1.24D-02 at cycle   2 NSaved=   2.
 NSaved= 2 IEnMin= 2 EnMin= -955.334410176496     IErMin= 2 ErrMin= 1.24D-02
 ErrMax= 1.24D-02  0.00D+00 EMaxC= 1.00D-01 BMatC= 1.12D-01 BMatP= 5.75D-01
 IDIUse=3 WtCom= 8.76D-01 WtEn= 1.24D-01
 Coeff-Com:  0.232D+00 0.768D+00
 Coeff-En:   0.351D+00 0.649D+00
 Coeff:      0.247D+00 0.753D+00
 Gap=     0.239 Goal=   None    Shift=    0.000
 RMSDP=1.90D-03 MaxDP=1.36D-01 DE=-1.42D-01 OVMax= 2.20D-01

 Cycle   3  Pass 0  IDiag  1:
 RMSU=  1.59D-03    CP:  9.65D-01  6.05D-01
 E= -955.641896070390     Delta-E=       -0.307485893894 Rises=F Damp=F
 DIIS: error= 1.36D-02 at cycle   3 NSaved=   3.
 NSaved= 3 IEnMin= 3 EnMin= -955.641896070390     IErMin= 2 ErrMin= 1.24D-02
 ErrMax= 1.36D-02  0.00D+00 EMaxC= 1.00D-01 BMatC= 1.20D-01 BMatP= 1.12D-01
 IDIUse=3 WtCom= 8.64D-01 WtEn= 1.36D-01
 Coeff-Com:  0.652D-01 0.497D+00 0.438D+00
 Coeff-En:   0.000D+00 0.000D+00 0.100D+01
 Coeff:      0.563D-01 0.429D+00 0.515D+00
 Gap=     0.161 Goal=   None    Shift=    0.000
 RMSDP=1.15D-03 MaxDP=6.67D-02 DE=-3.07D-01 OVMax= 1.27D-01

 Cycle   4  Pass 0  IDiag  1:
 RMSU=  7.33D-04    CP:  9.71D-01  7.54D-01  4.97D-01
 E= -955.726104116535     Delta-E=       -0.084208046145 Rises=F Damp=F
 DIIS: error= 6.69D-03 at cycle   4 NSaved=   4.
 NSaved= 4 IEnMin= 4 EnMin= -955.726104116535     IErMin= 4 ErrMin= 6.69D-03
 ErrMax= 6.69D-03  0.00D+00 EMaxC= 1.00D-01 BMatC= 2.44D-02 BMatP= 1.12D-01
 IDIUse=3 WtCom= 9.33D-01 WtEn= 6.69D-02
 Coeff-Com:  0.141D-01 0.101D+00 0.318D+00 0.567D+00
 Coeff-En:   0.000D+00 0.000D+00 0.198D+00 0.802D+00
 Coeff:      0.131D-01 0.942D-01 0.310D+00 0.582D+00
 Gap=     0.165 Goal=   None    Shift=    0.000
 RMSDP=4.16D-04 MaxDP=3.04D-02 DE=-8.42D-02 OVMax= 4.20D-02

 Cycle   5  Pass 0  IDiag  1:
 RMSU=  1.84D-04    CP:  9.70D-01  6.98D-01  6.33D-01  6.32D-01
 E= -955.744273346073     Delta-E=       -0.018169229538 Rises=F Damp=F
 DIIS: error= 1.26D-03 at cycle   5 NSaved=   5.
 NSaved= 5 IEnMin= 5 EnMin= -955.744273346073     IErMin= 5 ErrMin= 1.26D-03
 ErrMax= 1.26D-03  0.00D+00 EMaxC= 1.00D-01 BMatC= 1.72D-03 BMatP= 2.44D-02
 IDIUse=3 WtCom= 9.87D-01 WtEn= 1.26D-02
 Coeff-Com:  0.211D-02 0.117D-01 0.141D+00 0.351D+00 0.494D+00
 Coeff-En:   0.000D+00 0.000D+00 0.000D+00 0.610D-02 0.994D+00
 Coeff:      0.208D-02 0.115D-01 0.140D+00 0.347D+00 0.500D+00
 Gap=     0.164 Goal=   None    Shift=    0.000
 RMSDP=1.26D-04 MaxDP=6.43D-03 DE=-1.82D-02 OVMax= 1.81D-02

 Cycle   6  Pass 0  IDiag  1:
 RMSU=  6.85D-05    CP:  9.70D-01  7.04D-01  6.29D-01  6.85D-01  4.75D-01
 E= -955.745668305401     Delta-E=       -0.001394959328 Rises=F Damp=F
 DIIS: error= 6.08D-04 at cycle   6 NSaved=   6.
 NSaved= 6 IEnMin= 6 EnMin= -955.745668305401     IErMin= 6 ErrMin= 6.08D-04
 ErrMax= 6.08D-04  0.00D+00 EMaxC= 1.00D-01 BMatC= 1.70D-04 BMatP= 1.72D-03
 IDIUse=3 WtCom= 9.94D-01 WtEn= 6.08D-03
 Coeff-Com:  0.250D-03-0.246D-02 0.473D-01 0.133D+00 0.296D+00 0.526D+00
 Coeff-En:   0.000D+00 0.000D+00 0.000D+00 0.000D+00 0.828D-01 0.917D+00
 Coeff:      0.249D-03-0.245D-02 0.470D-01 0.132D+00 0.295D+00 0.528D+00
 Gap=     0.165 Goal=   None    Shift=    0.000
 RMSDP=4.40D-05 MaxDP=2.33D-03 DE=-1.39D-03 OVMax= 7.63D-03

 Cycle   7  Pass 0  IDiag  1:
 RMSU=  2.16D-05    CP:  9.70D-01  7.05D-01  6.31D-01  6.78D-01  5.84D-01
                    CP:  5.33D-01
 E= -955.745819372801     Delta-E=       -0.000151067400 Rises=F Damp=F
 DIIS: error= 1.77D-04 at cycle   7 NSaved=   7.
 NSaved= 7 IEnMin= 7 EnMin= -955.745819372801     IErMin= 7 ErrMin= 1.77D-04
 ErrMax= 1.77D-04  0.00D+00 EMaxC= 1.00D-01 BMatC= 2.35D-05 BMatP= 1.70D-04
 IDIUse=3 WtCom= 9.98D-01 WtEn= 1.77D-03
 Coeff-Com: -0.205D-04-0.290D-02 0.141D-01 0.426D-01 0.134D+00 0.338D+00
 Coeff-Com:  0.474D+00
 Coeff-En:   0.000D+00 0.000D+00 0.000D+00 0.000D+00 0.000D+00 0.895D-01
 Coeff-En:   0.911D+00
 Coeff:     -0.204D-04-0.290D-02 0.140D-01 0.425D-01 0.134D+00 0.338D+00
 Coeff:      0.475D+00
 Gap=     0.165 Goal=   None    Shift=    0.000
 RMSDP=1.43D-05 MaxDP=5.60D-04 DE=-1.51D-04 OVMax= 1.96D-03

 Cycle   8  Pass 0  IDiag  1:
 RMSU=  6.75D-06    CP:  9.70D-01  7.03D-01  6.32D-01  6.83D-01  5.69D-01
                    CP:  6.02D-01  5.49D-01
 E= -955.745841663494     Delta-E=       -0.000022290693 Rises=F Damp=F
 DIIS: error= 3.14D-05 at cycle   8 NSaved=   8.
 NSaved= 8 IEnMin= 8 EnMin= -955.745841663494     IErMin= 8 ErrMin= 3.14D-05
 ErrMax= 3.14D-05  0.00D+00 EMaxC= 1.00D-01 BMatC= 1.10D-06 BMatP= 2.35D-05
 IDIUse=1 WtCom= 1.00D+00 WtEn= 0.00D+00
 Coeff-Com:  0.507D-04-0.122D-02 0.263D-02 0.797D-02 0.407D-01 0.123D+00
 Coeff-Com:  0.234D+00 0.592D+00
 Coeff:      0.507D-04-0.122D-02 0.263D-02 0.797D-02 0.407D-01 0.123D+00
 Coeff:      0.234D+00 0.592D+00
 Gap=     0.165 Goal=   None    Shift=    0.000
 RMSDP=3.48D-06 MaxDP=1.41D-04 DE=-2.23D-05 OVMax= 3.42D-04

 Initial convergence to 1.0D-05 achieved.  Increase integral accuracy.
 Cycle   9  Pass 1  IDiag  1:
 E= -955.745892575768     Delta-E=       -0.000050912274 Rises=F Damp=F
 DIIS: error= 5.30D-05 at cycle   1 NSaved=   1.
 NSaved= 1 IEnMin= 1 EnMin= -955.745892575768     IErMin= 1 ErrMin= 5.30D-05
 ErrMax= 5.30D-05  0.00D+00 EMaxC= 1.00D-01 BMatC= 9.11D-07 BMatP= 9.11D-07
 IDIUse=1 WtCom= 1.00D+00 WtEn= 0.00D+00
 Coeff-Com:  0.100D+01
 Coeff:      0.100D+01
 Gap=     0.165 Goal=   None    Shift=    0.000
 RMSDP=3.48D-06 MaxDP=1.41D-04 DE=-5.09D-05 OVMax= 3.97D-04

 Cycle  10  Pass 1  IDiag  1:
 RMSU=  2.77D-05    CP:  1.00D+00
 E= -955.745893028848     Delta-E=       -0.000000453080 Rises=F Damp=F
 DIIS: error= 2.75D-05 at cycle   2 NSaved=   2.
 NSaved= 2 IEnMin= 2 EnMin= -955.745893028848     IErMin= 2 ErrMin= 2.75D-05
 ErrMax= 2.75D-05  0.00D+00 EMaxC= 1.00D-01 BMatC= 4.56D-07 BMatP= 9.11D-07
 IDIUse=1 WtCom= 1.00D+00 WtEn= 0.00D+00
 Coeff-Com:  0.374D+00 0.626D+00
 Coeff:      0.374D+00 0.626D+00
 Gap=     0.165 Goal=   None    Shift=    0.000
 RMSDP=3.55D-06 MaxDP=1.32D-04 DE=-4.53D-07 OVMax= 4.74D-04

 Cycle  11  Pass 1  IDiag  1:
 RMSU=  3.53D-06    CP:  1.00D+00  9.94D-01
 E= -955.745893085953     Delta-E=       -0.000000057106 Rises=F Damp=F
 DIIS: error= 2.62D-05 at cycle   3 NSaved=   3.
 NSaved= 3 IEnMin= 3 EnMin= -955.745893085953     IErMin= 3 ErrMin= 2.62D-05
 ErrMax= 2.62D-05  0.00D+00 EMaxC= 1.00D-01 BMatC= 4.00D-07 BMatP= 4.56D-07
 IDIUse=1 WtCom= 1.00D+00 WtEn= 0.00D+00
 Coeff-Com:  0.380D-02 0.482D+00 0.514D+00
 Coeff:      0.380D-02 0.482D+00 0.514D+00
 Gap=     0.165 Goal=   None    Shift=    0.000
 RMSDP=1.90D-06 MaxDP=7.91D-05 DE=-5.71D-08 OVMax= 2.32D-04

 Cycle  12  Pass 1  IDiag  1:
 RMSU=  5.25D-07    CP:  1.00D+00  1.01D+00  4.97D-01
 E= -955.745893487865     Delta-E=       -0.000000401912 Rises=F Damp=F
 DIIS: error= 3.77D-06 at cycle   4 NSaved=   4.
 NSaved= 4 IEnMin= 4 EnMin= -955.745893487865     IErMin= 4 ErrMin= 3.77D-06
 ErrMax= 3.77D-06  0.00D+00 EMaxC= 1.00D-01 BMatC= 1.14D-08 BMatP= 4.00D-07
 IDIUse=1 WtCom= 1.00D+00 WtEn= 0.00D+00
 Coeff-Com: -0.692D-02 0.278D+00 0.313D+00 0.415D+00
 Coeff:     -0.692D-02 0.278D+00 0.313D+00 0.415D+00
 Gap=     0.165 Goal=   None    Shift=    0.000
 RMSDP=2.97D-07 MaxDP=1.54D-05 DE=-4.02D-07 OVMax= 3.01D-05

 Cycle  13  Pass 1  IDiag  1:
 RMSU=  1.47D-07    CP:  1.00D+00  1.01D+00  5.16D-01  5.28D-01
 E= -955.745893497244     Delta-E=       -0.000000009379 Rises=F Damp=F
 DIIS: error= 7.85D-07 at cycle   5 NSaved=   5.
 NSaved= 5 IEnMin= 5 EnMin= -955.745893497244     IErMin= 5 ErrMin= 7.85D-07
 ErrMax= 7.85D-07  0.00D+00 EMaxC= 1.00D-01 BMatC= 5.86D-10 BMatP= 1.14D-08
 IDIUse=1 WtCom= 1.00D+00 WtEn= 0.00D+00
 Coeff-Com: -0.445D-02 0.139D+00 0.158D+00 0.254D+00 0.454D+00
 Coeff:     -0.445D-02 0.139D+00 0.158D+00 0.254D+00 0.454D+00
 Gap=     0.165 Goal=   None    Shift=    0.000
 RMSDP=7.37D-08 MaxDP=3.87D-06 DE=-9.38D-09 OVMax= 6.81D-06

 Cycle  14  Pass 1  IDiag  1:
 RMSU=  5.88D-08    CP:  1.00D+00  1.01D+00  5.19D-01  5.68D-01  7.51D-01
 E= -955.745893497867     Delta-E=       -0.000000000623 Rises=F Damp=F
 DIIS: error= 2.07D-07 at cycle   6 NSaved=   6.
 NSaved= 6 IEnMin= 6 EnMin= -955.745893497867     IErMin= 6 ErrMin= 2.07D-07
 ErrMax= 2.07D-07  0.00D+00 EMaxC= 1.00D-01 BMatC= 4.25D-11 BMatP= 5.86D-10
 IDIUse=1 WtCom= 1.00D+00 WtEn= 0.00D+00
 Coeff-Com: -0.135D-02 0.340D-01 0.386D-01 0.786D-01 0.238D+00 0.612D+00
 Coeff:     -0.135D-02 0.340D-01 0.386D-01 0.786D-01 0.238D+00 0.612D+00
 Gap=     0.165 Goal=   None    Shift=    0.000
 RMSDP=2.13D-08 MaxDP=1.05D-06 DE=-6.23D-10 OVMax= 1.87D-06

 Cycle  15  Pass 1  IDiag  1:
 RMSU=  1.69D-08    CP:  1.00D+00  1.01D+00  5.18D-01  5.70D-01  7.94D-01
                    CP:  8.39D-01
 E= -955.745893497839     Delta-E=        0.000000000028 Rises=F Damp=F
 DIIS: error= 1.31D-07 at cycle   7 NSaved=   7.
 NSaved= 7 IEnMin= 6 EnMin= -955.745893497867     IErMin= 7 ErrMin= 1.31D-07
 ErrMax= 1.31D-07  0.00D+00 EMaxC= 1.00D-01 BMatC= 1.33D-11 BMatP= 4.25D-11
 IDIUse=1 WtCom= 1.00D+00 WtEn= 0.00D+00
 Coeff-Com: -0.180D-03 0.267D-03 0.857D-04 0.119D-01 0.815D-01 0.404D+00
 Coeff-Com:  0.502D+00
 Coeff:     -0.180D-03 0.267D-03 0.857D-04 0.119D-01 0.815D-01 0.404D+00
 Coeff:      0.502D+00
 Gap=     0.165 Goal=   None    Shift=    0.000
 RMSDP=1.07D-08 MaxDP=4.46D-07 DE= 2.82D-11 OVMax= 1.26D-06

 Cycle  16  Pass 1  IDiag  1:
 RMSU=  6.12D-09    CP:  1.00D+00  1.01D+00  5.18D-01  5.74D-01  8.06D-01
                    CP:  8.90D-01  5.44D-01
 E= -955.745893497883     Delta-E=       -0.000000000044 Rises=F Damp=F
 DIIS: error= 4.30D-08 at cycle   8 NSaved=   8.
 NSaved= 8 IEnMin= 8 EnMin= -955.745893497883     IErMin= 8 ErrMin= 4.30D-08
 ErrMax= 4.30D-08  0.00D+00 EMaxC= 1.00D-01 BMatC= 1.08D-12 BMatP= 1.33D-11
 IDIUse=1 WtCom= 1.00D+00 WtEn= 0.00D+00
 Coeff-Com:  0.282D-04-0.327D-02-0.388D-02-0.631D-03 0.214D-01 0.174D+00
 Coeff-Com:  0.293D+00 0.520D+00
 Coeff:      0.282D-04-0.327D-02-0.388D-02-0.631D-03 0.214D-01 0.174D+00
 Coeff:      0.293D+00 0.520D+00
 Gap=     0.165 Goal=   None    Shift=    0.000
 RMSDP=3.29D-09 MaxDP=1.51D-07 DE=-4.37D-11 OVMax= 4.30D-07

 SCF Done:  E(RB3LYP) =  -955.745893498     A.U. after   16 cycles
            NFock= 16  Conv=0.33D-08     -V/T= 2.0094
 KE= 9.468466125228D+02 PE=-5.594441529942D+03 EE= 2.007223102200D+03
 Leave Link  502 at Fri Feb 02 18:48:10 2024, MaxMem=    33554432 cpu:       118.0
 (Enter C:\G09W\l601.exe)
 Copying SCF densities to generalized density rwf, IOpCl= 0 IROHF=0.

 **********************************************************************

            Population analysis using the SCF density.

 **********************************************************************

 Orbital symmetries:
       Occupied  (A) (A) (A) (A) (A) (A) (A) (A) (A) (A) (A) (A)
                 (A) (A) (A) (A) (A) (A) (A) (A) (A) (A) (A) (A)
                 (A) (A) (A) (A) (A) (A) (A) (A) (A) (A) (A) (A)
                 (A) (A) (A) (A) (A) (A) (A) (A) (A) (A) (A) (A)
                 (A) (A) (A) (A) (A) (A) (A) (A) (A) (A) (A) (A)
                 (A) (A) (A) (A) (A) (A) (A) (A) (A) (A) (A) (A)
                 (A) (A) (A) (A)
       Virtual   (A) (A) (A) (A) (A) (A) (A) (A) (A) (A) (A) (A)
                 (A) (A) (A) (A) (A) (A) (A) (A) (A) (A) (A) (A)
                 (A) (A) (A) (A) (A) (A) (A) (A) (A) (A) (A) (A)
                 (A) (A) (A) (A) (A) (A) (A) (A) (A) (A) (A) (A)
                 (A) (A) (A) (A) (A) (A) (A) (A) (A) (A) (A) (A)
                 (A) (A) (A) (A) (A) (A) (A) (A) (A) (A) (A) (A)
                 (A) (A) (A) (A) (A) (A) (A) (A) (A) (A) (A) (A)
                 (A) (A) (A) (A) (A) (A) (A) (A) (A) (A) (A) (A)
                 (A) (A) (A) (A) (A) (A) (A) (A) (A) (A) (A) (A)
                 (A) (A) (A) (A) (A) (A) (A) (A) (A) (A) (A) (A)
                 (A) (A) (A) (A) (A) (A) (A) (A) (A) (A) (A) (A)
                 (A) (A) (A) (A) (A) (A) (A) (A) (A) (A) (A) (A)
                 (A) (A) (A) (A) (A) (A) (A) (A) (A) (A) (A) (A)
                 (A) (A) (A) (A) (A) (A) (A) (A) (A) (A) (A) (A)
                 (A) (A) (A) (A) (A) (A) (A) (A) (A) (A) (A) (A)
                 (A) (A) (A) (A) (A) (A) (A) (A) (A) (A) (A) (A)
                 (A) (A) (A) (A) (A) (A) (A) (A) (A) (A) (A) (A)
                 (A) (A) (A) (A) (A) (A) (A) (A) (A) (A) (A) (A)
                 (A) (A) (A) (A) (A) (A) (A) (A) (A) (A) (A) (A)
                 (A) (A) (A) (A) (A) (A) (A) (A) (A) (A) (A) (A)
                 (A) (A) (A) (A) (A) (A) (A) (A) (A) (A) (A) (A)
                 (A) (A) (A) (A) (A) (A) (A) (A) (A) (A) (A) (A)
                 (A) (A) (A) (A) (A) (A) (A) (A) (A) (A) (A) (A)
                 (A) (A) (A) (A) (A) (A) (A) (A) (A) (A) (A) (A)
                 (A) (A) (A) (A) (A) (A) (A) (A) (A) (A) (A) (A)
                 (A) (A) (A) (A) (A) (A) (A) (A) (A) (A) (A) (A)
                 (A) (A) (A) (A) (A) (A) (A) (A) (A) (A) (A) (A)
                 (A) (A) (A) (A) (A)
 The electronic state is 1-A.
 Alpha  occ. eigenvalues --  -19.20914 -19.14384 -19.09713 -14.36569 -14.35507
 Alpha  occ. eigenvalues --  -10.32362 -10.27631 -10.25328 -10.23656 -10.20553
 Alpha  occ. eigenvalues --  -10.20266 -10.19887 -10.19481 -10.19272 -10.18257
 Alpha  occ. eigenvalues --  -10.17415 -10.16969 -10.16942 -10.16936 -10.16691
 Alpha  occ. eigenvalues --  -10.16485  -1.11489  -1.02419  -1.01938  -0.96311
 Alpha  occ. eigenvalues --   -0.92029  -0.82101  -0.80840  -0.78876  -0.76134
 Alpha  occ. eigenvalues --   -0.73222  -0.71790  -0.70169  -0.69307  -0.66130
 Alpha  occ. eigenvalues --   -0.61062  -0.60628  -0.58242  -0.57645  -0.56308
 Alpha  occ. eigenvalues --   -0.54525  -0.52432  -0.52024  -0.49310  -0.48152
 Alpha  occ. eigenvalues --   -0.47692  -0.47175  -0.46081  -0.45285  -0.44142
 Alpha  occ. eigenvalues --   -0.43702  -0.42497  -0.42281  -0.41848  -0.41238
 Alpha  occ. eigenvalues --   -0.40517  -0.40125  -0.39592  -0.38895  -0.38603
 Alpha  occ. eigenvalues --   -0.37529  -0.36959  -0.36356  -0.35444  -0.35167
 Alpha  occ. eigenvalues --   -0.33606  -0.31950  -0.31512  -0.31278  -0.28604
 Alpha  occ. eigenvalues --   -0.26659  -0.25632  -0.24362  -0.23160  -0.20394
 Alpha  occ. eigenvalues --   -0.18655
 Alpha virt. eigenvalues --   -0.02184  -0.00262   0.00780   0.04299   0.06854
 Alpha virt. eigenvalues --    0.08221   0.08928   0.09520   0.10469   0.11029
 Alpha virt. eigenvalues --    0.11499   0.12604   0.13512   0.14206   0.14692
 Alpha virt. eigenvalues --    0.15094   0.15718   0.16209   0.16333   0.16920
 Alpha virt. eigenvalues --    0.17602   0.17970   0.18327   0.19360   0.19713
 Alpha virt. eigenvalues --    0.20916   0.21836   0.23463   0.24542   0.25019
 Alpha virt. eigenvalues --    0.25943   0.26446   0.27873   0.29094   0.31678
 Alpha virt. eigenvalues --    0.31799   0.33542   0.35392   0.35666   0.36059
 Alpha virt. eigenvalues --    0.36968   0.40136   0.40975   0.41254   0.44859
 Alpha virt. eigenvalues --    0.48757   0.49593   0.50024   0.51228   0.51889
 Alpha virt. eigenvalues --    0.52556   0.53133   0.53821   0.54234   0.55404
 Alpha virt. eigenvalues --    0.56242   0.56257   0.56878   0.57341   0.58339
 Alpha virt. eigenvalues --    0.58589   0.59786   0.61109   0.61560   0.62097
 Alpha virt. eigenvalues --    0.62353   0.62806   0.63459   0.63808   0.65110
 Alpha virt. eigenvalues --    0.65208   0.66236   0.66723   0.67731   0.68704
 Alpha virt. eigenvalues --    0.69140   0.70315   0.71365   0.72131   0.74044
 Alpha virt. eigenvalues --    0.74965   0.75670   0.76961   0.78282   0.78613
 Alpha virt. eigenvalues --    0.80363   0.81333   0.81647   0.81924   0.82217
 Alpha virt. eigenvalues --    0.82582   0.82759   0.83421   0.83767   0.84419
 Alpha virt. eigenvalues --    0.85062   0.85306   0.86101   0.86969   0.87952
 Alpha virt. eigenvalues --    0.89001   0.89608   0.90493   0.90902   0.91244
 Alpha virt. eigenvalues --    0.92350   0.92773   0.93126   0.94351   0.95292
 Alpha virt. eigenvalues --    0.96748   0.98330   0.99417   1.00108   1.02478
 Alpha virt. eigenvalues --    1.03245   1.04316   1.05547   1.07001   1.08838
 Alpha virt. eigenvalues --    1.10225   1.11084   1.11768   1.12472   1.14377
 Alpha virt. eigenvalues --    1.14970   1.16655   1.17446   1.21632   1.23492
 Alpha virt. eigenvalues --    1.25499   1.25901   1.26593   1.28003   1.29759
 Alpha virt. eigenvalues --    1.31324   1.32550   1.33026   1.34167   1.35356
 Alpha virt. eigenvalues --    1.37352   1.37840   1.38294   1.39947   1.40448
 Alpha virt. eigenvalues --    1.41611   1.43018   1.44026   1.45123   1.46052
 Alpha virt. eigenvalues --    1.46264   1.47347   1.47813   1.49038   1.52551
 Alpha virt. eigenvalues --    1.54646   1.56910   1.57370   1.60262   1.61499
 Alpha virt. eigenvalues --    1.62941   1.67240   1.68649   1.71731   1.72191
 Alpha virt. eigenvalues --    1.73669   1.74264   1.78092   1.78427   1.79688
 Alpha virt. eigenvalues --    1.80423   1.80851   1.81937   1.82724   1.83625
 Alpha virt. eigenvalues --    1.85426   1.85509   1.86469   1.87845   1.88604
 Alpha virt. eigenvalues --    1.89889   1.91190   1.91472   1.91502   1.92584
 Alpha virt. eigenvalues --    1.93383   1.94041   1.95233   1.95882   1.97152
 Alpha virt. eigenvalues --    1.98226   1.99642   2.00160   2.00463   2.01214
 Alpha virt. eigenvalues --    2.02251   2.02727   2.02975   2.04025   2.05499
 Alpha virt. eigenvalues --    2.05860   2.06623   2.07052   2.08512   2.09395
 Alpha virt. eigenvalues --    2.09740   2.10173   2.12217   2.13040   2.15030
 Alpha virt. eigenvalues --    2.16459   2.17913   2.18544   2.19178   2.22719
 Alpha virt. eigenvalues --    2.23068   2.24783   2.27108   2.28269   2.28707
 Alpha virt. eigenvalues --    2.30435   2.32368   2.32802   2.33443   2.34559
 Alpha virt. eigenvalues --    2.35636   2.36355   2.38137   2.40099   2.40189
 Alpha virt. eigenvalues --    2.40847   2.42130   2.42778   2.43842   2.46090
 Alpha virt. eigenvalues --    2.47306   2.48295   2.49165   2.49829   2.51392
 Alpha virt. eigenvalues --    2.51683   2.52460   2.54157   2.55590   2.56112
 Alpha virt. eigenvalues --    2.57370   2.57481   2.58026   2.59499   2.60268
 Alpha virt. eigenvalues --    2.61510   2.62867   2.63931   2.64874   2.66165
 Alpha virt. eigenvalues --    2.67656   2.68173   2.69781   2.70290   2.71093
 Alpha virt. eigenvalues --    2.71972   2.72861   2.74460   2.75490   2.76050
 Alpha virt. eigenvalues --    2.78870   2.79561   2.80849   2.82782   2.83114
 Alpha virt. eigenvalues --    2.83710   2.86242   2.87187   2.89304   2.89731
 Alpha virt. eigenvalues --    2.92163   2.93615   2.95618   2.97170   3.01333
 Alpha virt. eigenvalues --    3.02967   3.03443   3.04214   3.09674   3.10801
 Alpha virt. eigenvalues --    3.13925   3.18030   3.18814   3.19723   3.23116
 Alpha virt. eigenvalues --    3.24321   3.26009   3.29565   3.31086   3.36829
 Alpha virt. eigenvalues --    3.38244   3.38832   3.40240   3.41215   3.41411
 Alpha virt. eigenvalues --    3.45287   3.46920   3.50561   3.52424   3.56725
 Alpha virt. eigenvalues --    3.61458   3.69362   3.87645   4.04874   4.10827
 Alpha virt. eigenvalues --    4.14667   4.15297   4.16837   4.20670   4.24855
 Alpha virt. eigenvalues --    4.26135   4.29924   4.33144   4.35428   4.37353
 Alpha virt. eigenvalues --    4.43636   4.46267   4.51224   4.55676   4.60573
 Alpha virt. eigenvalues --    4.71318   4.75801   4.79387   4.92270
          Condensed to atoms (all electrons):
               1          2          3          4          5          6
     1  N    7.184149   0.179092  -0.047312  -0.027992   0.002256  -0.055444
     2  C    0.179092   5.100075   0.381951   0.317745  -0.065889   0.325362
     3  H   -0.047312   0.381951   0.547472  -0.031561   0.000315  -0.042524
     4  C   -0.027992   0.317745  -0.031561   4.408288   0.527305  -0.027860
     5  O    0.002256  -0.065889   0.000315   0.527305   8.074968  -0.005511
     6  C   -0.055444   0.325362  -0.042524  -0.027860  -0.005511   5.118893
     7  H   -0.001285  -0.048626   0.005683  -0.002093   0.000240   0.355844
     8  H    0.005553  -0.048424   0.002267  -0.003936   0.009435   0.360608
     9  C   -0.001472  -0.042246  -0.002803   0.002790  -0.000200   0.369775
    10  C    0.000113  -0.004819   0.003714   0.000009   0.000023  -0.089590
    11  H    0.000004   0.000132   0.000241  -0.000008   0.000007  -0.002604
    12  C    0.001324  -0.003111   0.000204  -0.000076  -0.000004  -0.053356
    13  N    0.000005   0.000046  -0.000146   0.000001   0.000000   0.005406
    14  H    0.000000  -0.000001   0.000003   0.000000   0.000000  -0.000101
    15  C   -0.000039   0.000090  -0.000127   0.000005   0.000000   0.010589
    16  C   -0.002171   0.000164   0.000035  -0.000024   0.000000  -0.013544
    17  H    0.004097  -0.000486   0.000053   0.000005   0.000000   0.002427
    18  C   -0.000002   0.000003   0.000000   0.000000   0.000000  -0.000209
    19  H    0.000000   0.000000   0.000000   0.000000   0.000000   0.000002
    20  C    0.000055   0.000004   0.000002   0.000000   0.000000  -0.000019
    21  H   -0.000002   0.000000   0.000000   0.000000   0.000000   0.000000
    22  C    0.000002  -0.000001   0.000000   0.000000   0.000000   0.000007
    23  H    0.000000   0.000000   0.000000   0.000000   0.000000   0.000000
    24  O   -0.007705  -0.083257   0.001819   0.252809  -0.079815  -0.000279
    25  H    0.325231  -0.032743   0.004751  -0.007826   0.000226   0.000129
    26  C    0.000027   0.006692  -0.000157  -0.019181   0.004198  -0.000081
    27  H   -0.000011  -0.000036   0.000003   0.004447   0.000684   0.000001
    28  H   -0.000049   0.000135   0.000029  -0.005577   0.007536  -0.000009
    29  H    0.000006  -0.000370  -0.000012  -0.004770   0.004591   0.000044
    30  C    0.222575  -0.011948  -0.002736   0.003252  -0.000040  -0.004955
    31  C   -0.108855   0.006961   0.000598  -0.000066   0.000001  -0.000565
    32  C    0.007611  -0.000219  -0.000006   0.000001   0.000000   0.000015
    33  C   -0.006567   0.000031  -0.000039  -0.000040   0.000000   0.000032
    34  O   -0.112186   0.010450   0.013518   0.000584   0.000000  -0.004468
    35  H   -0.000120   0.000001   0.000000   0.000000   0.000000   0.000000
    36  H    0.000696  -0.000017  -0.000008   0.000000   0.000000   0.000002
    37  H    0.000112   0.000001   0.000001   0.000000   0.000000   0.000000
    38  H    0.001357  -0.000014  -0.000013   0.000017   0.000000   0.000010
    39  H    0.000725   0.000015   0.000002   0.000005   0.000000  -0.000025
               7          8          9         10         11         12
     1  N   -0.001285   0.005553  -0.001472   0.000113   0.000004   0.001324
     2  C   -0.048626  -0.048424  -0.042246  -0.004819   0.000132  -0.003111
     3  H    0.005683   0.002267  -0.002803   0.003714   0.000241   0.000204
     4  C   -0.002093  -0.003936   0.002790   0.000009  -0.000008  -0.000076
     5  O    0.000240   0.009435  -0.000200   0.000023   0.000007  -0.000004
     6  C    0.355844   0.360608   0.369775  -0.089590  -0.002604  -0.053356
     7  H    0.631892  -0.026987  -0.023081   0.004178  -0.000025  -0.005134
     8  H   -0.026987   0.605051  -0.026018  -0.006113   0.003271   0.003091
     9  C   -0.023081  -0.026018   4.927889   0.497682  -0.029703   0.400996
    10  C    0.004178  -0.006113   0.497682   4.985765   0.372818   0.020152
    11  H   -0.000025   0.003271  -0.029703   0.372818   0.594018   0.002908
    12  C   -0.005134   0.003091   0.400996   0.020152   0.002908   4.773186
    13  N   -0.000085   0.000038  -0.050962   0.308371  -0.047395  -0.053768
    14  H    0.000004  -0.000005   0.004314  -0.032510  -0.002279   0.007218
    15  C   -0.000285  -0.000074   0.011390  -0.137290   0.005091   0.452306
    16  C    0.003689   0.000001  -0.108247   0.016093  -0.000164   0.484585
    17  H    0.002317  -0.000025  -0.008473  -0.000205  -0.000002  -0.039689
    18  C   -0.000007   0.000003   0.012054   0.005683  -0.000129  -0.049116
    19  H    0.000000   0.000000  -0.000270  -0.000004   0.000001   0.004416
    20  C   -0.000015   0.000002   0.007980  -0.000364   0.000004  -0.005677
    21  H    0.000000   0.000000  -0.000200   0.000005   0.000000   0.002590
    22  C    0.000002   0.000000  -0.000016  -0.000094   0.000002  -0.036818
    23  H    0.000000   0.000000   0.000009   0.000003   0.000000   0.001116
    24  O    0.000562   0.000306  -0.000027   0.000000   0.000000   0.000000
    25  H    0.001820  -0.000139   0.000014   0.000002   0.000000  -0.000044
    26  C   -0.000034  -0.000073   0.000003   0.000000   0.000000   0.000000
    27  H   -0.000001  -0.000001   0.000000   0.000000   0.000000   0.000000
    28  H    0.000001  -0.000006   0.000000   0.000000   0.000000   0.000000
    29  H   -0.000005   0.000042   0.000000   0.000000   0.000000   0.000000
    30  C   -0.000616   0.000043   0.000727  -0.000286   0.000002   0.001207
    31  C   -0.000068   0.000006   0.000071  -0.000004   0.000000   0.000225
    32  C   -0.000001   0.000000  -0.000002   0.000000   0.000000   0.000057
    33  C   -0.000014   0.000000  -0.000003   0.000000   0.000000  -0.000003
    34  O   -0.000087  -0.000055   0.005676   0.000751   0.000005  -0.011166
    35  H    0.000000   0.000000   0.000000   0.000000   0.000000   0.000000
    36  H    0.000000   0.000000  -0.000008   0.000000   0.000000  -0.000055
    37  H    0.000000   0.000000   0.000000   0.000000   0.000000   0.000000
    38  H   -0.000003   0.000000   0.000000   0.000000   0.000000   0.000000
    39  H    0.000029   0.000000  -0.000002   0.000000   0.000000  -0.000002
              13         14         15         16         17         18
     1  N    0.000005   0.000000  -0.000039  -0.002171   0.004097  -0.000002
     2  C    0.000046  -0.000001   0.000090   0.000164  -0.000486   0.000003
     3  H   -0.000146   0.000003  -0.000127   0.000035   0.000053   0.000000
     4  C    0.000001   0.000000   0.000005  -0.000024   0.000005   0.000000
     5  O    0.000000   0.000000   0.000000   0.000000   0.000000   0.000000
     6  C    0.005406  -0.000101   0.010589  -0.013544   0.002427  -0.000209
     7  H   -0.000085   0.000004  -0.000285   0.003689   0.002317  -0.000007
     8  H    0.000038  -0.000005  -0.000074   0.000001  -0.000025   0.000003
     9  C   -0.050962   0.004314   0.011390  -0.108247  -0.008473   0.012054
    10  C    0.308371  -0.032510  -0.137290   0.016093  -0.000205   0.005683
    11  H   -0.047395  -0.002279   0.005091  -0.000164  -0.000002  -0.000129
    12  C   -0.053768   0.007218   0.452306   0.484585  -0.039689  -0.049116
    13  N    6.917423   0.357768   0.263550   0.011146  -0.000111  -0.092169
    14  H    0.357768   0.443321  -0.030914  -0.000101   0.000005  -0.004959
    15  C    0.263550  -0.030914   4.801637  -0.059655   0.005517   0.476194
    16  C    0.011146  -0.000101  -0.059655   5.052123   0.351609  -0.056533
    17  H   -0.000111   0.000005   0.005517   0.351609   0.665462   0.000488
    18  C   -0.092169  -0.004959   0.476194  -0.056533   0.000488   4.983784
    19  H   -0.006196   0.002788  -0.037956   0.000664   0.000019   0.354784
    20  C   -0.000102  -0.000006  -0.043808   0.512987  -0.044603  -0.031480
    21  H    0.000003   0.000000   0.001100  -0.037026  -0.006049   0.004778
    22  C    0.005283  -0.000075  -0.005165  -0.027112   0.004776   0.531920
    23  H   -0.000118  -0.000001   0.002857   0.004516  -0.000194  -0.038466
    24  O    0.000000   0.000000   0.000000   0.000000   0.000000   0.000000
    25  H    0.000000   0.000000   0.000000   0.000038   0.000048   0.000000
    26  C    0.000000   0.000000   0.000000   0.000000   0.000000   0.000000
    27  H    0.000000   0.000000   0.000000   0.000000   0.000000   0.000000
    28  H    0.000000   0.000000   0.000000   0.000000   0.000000   0.000000
    29  H    0.000000   0.000000   0.000000   0.000000   0.000000   0.000000
    30  C    0.000001   0.000000   0.000172   0.002045   0.000524  -0.000020
    31  C    0.000000   0.000000  -0.000004  -0.000932   0.000964   0.000002
    32  C    0.000000   0.000000  -0.000002   0.000231   0.000160  -0.000001
    33  C    0.000000   0.000000   0.000000   0.000008  -0.000046   0.000000
    34  O   -0.000275  -0.000005   0.000205   0.001099  -0.002800   0.000201
    35  H    0.000000   0.000000   0.000000   0.000012  -0.000003   0.000000
    36  H    0.000000   0.000000  -0.000001   0.000347   0.000005  -0.000003
    37  H    0.000000   0.000000   0.000000   0.000002  -0.000009   0.000000
    38  H    0.000000   0.000000   0.000000   0.000003  -0.000005   0.000000
    39  H    0.000000   0.000000   0.000000  -0.000049   0.000523   0.000000
              19         20         21         22         23         24
     1  N    0.000000   0.000055  -0.000002   0.000002   0.000000  -0.007705
     2  C    0.000000   0.000004   0.000000  -0.000001   0.000000  -0.083257
     3  H    0.000000   0.000002   0.000000   0.000000   0.000000   0.001819
     4  C    0.000000   0.000000   0.000000   0.000000   0.000000   0.252809
     5  O    0.000000   0.000000   0.000000   0.000000   0.000000  -0.079815
     6  C    0.000002  -0.000019   0.000000   0.000007   0.000000  -0.000279
     7  H    0.000000  -0.000015   0.000000   0.000002   0.000000   0.000562
     8  H    0.000000   0.000002   0.000000   0.000000   0.000000   0.000306
     9  C   -0.000270   0.007980  -0.000200  -0.000016   0.000009  -0.000027
    10  C   -0.000004  -0.000364   0.000005  -0.000094   0.000003   0.000000
    11  H    0.000001   0.000004   0.000000   0.000002   0.000000   0.000000
    12  C    0.004416  -0.005677   0.002590  -0.036818   0.001116   0.000000
    13  N   -0.006196  -0.000102   0.000003   0.005283  -0.000118   0.000000
    14  H    0.002788  -0.000006   0.000000  -0.000075  -0.000001   0.000000
[...]
 18362896,-0.00002695,0.00036043,-0.00062613,-0.00008933,-0.00032088,-0
 .00051585,-0.00004924,0.00001643,-0.00002142,-0.00001178,0.00003281,0.
 00017935,0.00008091,-0.00006806,-0.00004215,-0.00008835,0.00009761,-0.
 00004399,0.00000270,0.00000704,0.00000587,-0.00001785,-0.00002345,-0.0
 0001956,0.00000841,0.00001195,0.00001891,0.00001316,0.00001192,-0.0000
 0939,-0.00000778,-0.00000062,-0.00000695,0.00000543,-0.00001271,-0.000
 00254,0.00001207,0.00001167,0.00000683,-0.00000743,-0.00000397,-0.0000
 1260,-0.00000740,-0.00000418,0.00000440,-0.00000184,-0.00000826,0.0000
 0508,-0.00000010,-0.00000405,-0.00000161,0.00001009,-0.00000650,-0.000
 00320,-0.00000303,-0.00000113,0.00000030,-0.00000242,0.00000431,0.0000
 0582,-0.00000167,0.00000199,-0.00000241,0.00000459,0.00000337,-0.00000
 153,-0.00000239,0.00000169,-0.00000150,0.00003384,-0.00002300,-0.00009
 759,0.00008077,0.00018890,0.00011482,-0.00003211,0.00001661,0.00004317
 ,0.00000353,0.00000311,-0.00000679,0.00000603,-0.00000642,-0.00000058,
 0.00000531,-0.00000441,-0.00000277,-0.00312517,0.00227928,0.00666886,-
 0.00698420,0.00730124,-0.00175093,0.10382671,-0.14273591,0.09411619,-0
 .00027558,-0.00176297,-0.00429931,0.00178450,0.00030892,-0.00064149,-0
 .11027883,0.14037534,-0.00007353,-0.00023402,-0.00043699,0.00009771,-0
 .00064664,-0.00056286,0.00003432,-0.00001098,0.00002079,0.00010394,-0.
 00007016,0.00011152,0.00001276,-0.00002413,-0.00002402,-0.00015226,0.0
 0018519,-0.00001765,-0.00000253,-0.00000977,-0.00000272,-0.00003800,-0
 .00004273,-0.00005058,-0.00000267,0.00003124,0.00001391,-0.00002489,0.
 00000019,0.00003772,0.00000246,-0.00000192,0.00000690,-0.00000725,0.00
 001746,0.00000334,0.00002995,-0.00004153,-0.00001710,-0.00000667,0.000
 00104,0.00000110,0.00001492,0.00001319,-0.00003346,-0.00001266,-0.0000
 0119,-0.00000402,0.00001533,0.00000347,-0.00000714,0.00001144,0.000011
 78,-0.00000198,-0.00000179,-0.00000254,-0.00001089,0.00000185,-0.00000
 375,0.00000141,-0.00000352,-0.00000077,0.00000179,0.00000882,-0.000010
 40,0.00001367,-0.00000282,-0.00001111,-0.00000544,-0.00003640,0.000010
 79,0.00000097,-0.00003672,0.00021363,0.00023219,0.00001705,-0.00000349
 ,-0.00001549,0.00000187,0.00000154,0.00000168,0.00000060,0.00000023,0.
 00000312,-0.00000564,0.00000017,0.00000057,-0.00090393,0.00627530,0.00
 758779,0.00146149,0.00272478,0.00483284,-0.09776089,0.09310744,-0.1188
 9027,0.00162846,-0.00367036,-0.00482509,-0.00081029,-0.00102461,-0.000
 34769,0.10615381,-0.10233574,0.11446503,0.00172822,0.00076702,-0.00035
 023,-0.00003927,0.00015272,-0.00028429,-0.00020409,0.00003088,-0.00006
 073,-0.00013975,0.00010170,0.00024749,0.00012999,-0.00008778,-0.000063
 82,0.00001212,-0.00006064,-0.00004884,0.00001396,0.00002167,0.00001590
 ,0.00001706,0.00001601,0.00003186,0.00002514,-0.00001591,0.00000928,0.
 00004439,0.00002763,-0.00005854,-0.00000884,0.00000245,-0.00001774,0.0
 0002524,-0.00008894,0.00000319,-0.00002238,0.00007166,0.00001725,-0.00
 000104,0.00000134,-0.00001246,-0.00003303,-0.00001790,0.00005426,-0.00
 002353,-0.00002423,-0.00001519,0.00002355,-0.00001486,0.00000429,0.000
 01395,-0.00001940,-0.00001099,-0.00000197,0.00000319,0.00000288,-0.000
 02907,0.00001919,-0.00001043,0.00000825,0.00001953,0.00000051,-0.00001
 400,0.00002934,-0.00000175,0.00000011,0.00000556,0.00000048,0.00009088
 ,-0.00002586,-0.00017954,0.00037099,-0.00012388,0.00007479,-0.00005863
 ,0.00001694,0.00007609,0.00000462,-0.00000231,-0.00001673,0.00000832,-
 0.00000595,-0.00000713,0.00001366,-0.00000712,-0.00000438,-0.00262335,
 -0.00344367,0.00356946,-0.00611083,-0.02620197,0.01671121,-0.08948622,
 -0.07646079,0.04602148,-0.00421948,-0.00012603,-0.00285739,0.00179902,
 0.00214997,-0.00116965,0.00889924,0.01515335,-0.00977363,0.09049744,-0
 .00062499,-0.00007884,0.00020296,0.00004843,0.00013642,0.00031099,0.00
 004816,0.00001394,-0.00000894,-0.00002249,0.00000020,-0.00001219,-0.00
 003727,0.00002597,-0.00000585,0.00003390,-0.00003113,0.00002506,0.0000
 0510,0.00000110,-0.00000474,0.00001255,0.00000740,0.00000292,-0.000008
 79,0.00000958,-0.00000885,-0.00002958,0.00001840,0.00002522,-0.0000016
 3,-0.00000014,0.00000360,-0.00000026,0.00001836,-0.00000525,0.00004894
 ,-0.00001358,-0.00001338,-0.00002001,-0.00000382,-0.00001444,0.0000017
 9,-0.00000911,-0.00001099,-0.00000045,0.00000705,0.00001846,-0.0000016
 0,0.00000182,-0.00000502,0.00001000,0.00000575,0.00000222,-0.00000289,
 -0.00000519,-0.00000906,0.00000914,-0.00000776,0.00000765,-0.00000151,
 0.00000036,-0.00000267,0.00000912,-0.00001251,0.00000603,-0.00000264,-
 0.00000205,-0.00000081,-0.00001110,0.00001620,-0.00002022,-0.00004932,
 -0.00008905,0.00002352,0.00001358,-0.00000059,-0.00000388,0.00000271,-
 0.00000084,-0.00000204,0.00000066,0.00000014,-0.00000014,-0.00000288,-
 0.00000034,-0.00000180,0.00136016,-0.00318139,-0.00285993,-0.00310324,
 -0.00173458,0.00424482,-0.08175788,-0.23292802,0.12524505,-0.00118472,
 0.00474633,0.00560653,0.00210823,-0.00052513,0.00034151,-0.00605968,-0
 .00650656,0.00560518,0.08951152,0.24023258,0.00084038,0.00031749,0.000
 07996,-0.00005198,0.00036375,0.00021402,-0.00007263,-0.00000894,-0.000
 01185,-0.00010098,0.00003804,0.00013549,0.00001798,-0.00000731,-0.0000
 5288,0.00007240,-0.00007741,0.00003003,0.00000141,0.00000698,-0.000000
 33,0.00002203,0.00001632,0.00003048,0.00000048,-0.00000408,-0.00000591
 ,-0.00000687,0.00001412,0.00000336,-0.00000920,0.00000039,-0.00000523,
 0.00000386,0.00000951,-0.00001040,0.00003488,0.00000772,0.00000201,-0.
 00001872,-0.00000807,-0.00001944,-0.00000814,-0.00001191,0.00000410,0.
 00001144,0.00001333,0.00002469,-0.00001660,-0.00000334,-0.00000094,0.0
 0000668,0.00000051,0.00000153,-0.00000386,-0.00000372,-0.00000206,0.00
 001374,-0.00000676,0.00001317,-0.00000431,-0.00000169,-0.00000447,0.00
 000868,-0.00000473,-0.00000089,-0.00000388,0.00000235,-0.00000058,0.00
 002299,-0.00001072,-0.00012893,0.00011606,-0.00003456,0.00000006,-0.00
 001133,0.00001574,0.00003741,0.00000832,0.00000245,-0.00001018,0.00000
 922,-0.00000912,-0.00000162,0.00000107,-0.00000538,-0.00000695,0.00008
 575,-0.00358138,-0.00498980,0.00033042,0.00011619,0.00494873,0.0496504
 2,0.12645616,-0.11921721,-0.00203077,0.00562365,0.00843042,-0.00135224
 ,0.00053014,-0.00099266,0.00531813,0.00914249,-0.00287809,-0.05298030,
 -0.13798786,0.11477905,-0.00006804,0.00018329,-0.00002379,0.00054330,0
 .00004639,0.00001845,-0.00012593,0.00007244,-0.00006291,0.00008596,-0.
 00013079,0.00001698,-0.00010452,0.00010334,-0.00000467,-0.00003213,0.0
 0000965,0.00003106,0.00001917,-0.00000599,0.00000046,-0.00000507,-0.00
 000146,-0.00001926,-0.00001474,0.00001997,-0.00000054,-0.00004971,0.00
 001227,0.00005695,0.00000252,0.00000125,0.00000427,0.00000538,-0.00006
 051,0.00001044,0.00004323,-0.00005387,-0.00004390,-0.00000117,-0.00000
 173,0.00000992,0.00000064,0.00000892,-0.00000043,-0.00010027,-0.000022
 59,-0.00004100,0.00008893,0.00002643,-0.00001901,0.00001535,-0.0000063
 9,-0.00001279,0.00000208,-0.00000226,-0.00000702,-0.00000991,0.0000722
 2,-0.00004346,-0.00002065,-0.00002192,0.00000596,0.00001302,-0.0000042
 9,0.00000888,0.00000771,-0.00001601,-0.00001493,-0.00008644,0.00009273
 ,0.00002624,0.00071097,-0.00014325,0.00012182,0.00007309,-0.00004641,-
 0.00008892,0.00000339,-0.00000563,0.00000208,-0.00001104,0.00001456,0.
 00000534,-0.00001542,0.00000827,0.00000431,-0.00279435,-0.00235815,0.0
 0100013,0.01044518,-0.00758122,0.00690909,0.00082065,-0.00129629,0.001
 09230,-0.19097020,0.10118261,-0.09305291,0.00104346,-0.00047908,0.0005
 9821,0.00005785,0.00002722,-0.00003312,0.00017856,0.00012830,-0.000056
 36,0.20551965,0.00036635,0.00065414,0.00003675,-0.00004602,0.00032548,
 -0.00018460,-0.00019196,-0.00001267,-0.00001336,-0.00008251,0.00008033
 ,0.00009950,0.00008451,-0.00007089,-0.00002173,0.00002134,-0.00008334,
 -0.00002137,0.00001688,0.00001222,0.00000577,0.00001899,0.00002165,0.0
 0002440,0.00001595,-0.00001213,-0.00000166,0.00000937,0.00003020,-0.00
 002370,-0.00000412,0.00000280,-0.00001196,0.00001865,-0.00012053,0.000
 00956,-0.00000315,0.00003868,-0.00000087,-0.00000479,0.00000084,-0.000
 00559,-0.00003100,-0.00000853,0.00005506,-0.00008205,-0.00003180,-0.00
 004303,0.00008072,-0.00000158,-0.00001677,0.00002493,-0.00002135,-0.00
 001769,-0.00000229,0.00000023,-0.00000276,-0.00003105,0.00005972,-0.00
 003137,-0.00000937,-0.00000067,0.00000178,-0.00000037,0.00002301,0.000
 00388,0.00000313,-0.00000525,-0.00000901,0.00007058,-0.00003672,-0.000
 08145,0.00014337,-0.00069743,-0.00025304,-0.00004731,0.00002251,0.0000
 6415,0.00000228,0.00000234,-0.00000803,0.00000791,-0.00000787,-0.00000
 334,0.00001135,-0.00000725,-0.00000518,-0.00448168,-0.00108722,0.00069
 025,0.01921950,-0.01459873,0.01277922,0.00170822,0.00105876,-0.0007356
 0,0.09865560,-0.11616649,0.06341739,0.00084689,-0.00179522,0.00153532,
 -0.00111727,0.00020354,-0.00012581,0.00008710,0.00023048,-0.00027441,-
 0.10655083,0.12540205,-0.00019886,0.00006665,0.00040985,-0.00000250,-0
 .00016289,0.00028475,0.00012390,0.00000633,0.00002609,0.00005951,-0.00
 000041,-0.00027688,-0.00005277,0.00002229,0.00008436,-0.00001085,0.000
 04178,0.00000027,0.00000178,-0.00000924,-0.00000310,-0.00001310,-0.000
 00571,-0.00002564,-0.00001087,0.00001010,-0.00000630,-0.00004911,0.000
 00631,0.00004987,0.00000612,0.00000006,0.00000601,-0.00001085,-0.00005
 675,0.00002877,0.00003471,-0.00004308,-0.00002648,-0.00000517,0.000001
 05,0.00000477,-0.00000415,0.00001220,-0.00000261,-0.00006934,-0.000012
 22,-0.00008288,0.00007526,0.00001371,-0.00002065,0.00002792,0.00000488
 ,-0.00001803,-0.00000137,-0.00000298,-0.00001156,-0.00001780,0.0000524
 2,-0.00001491,-0.00002258,-0.00001845,0.00000577,0.00001983,-0.0000026
 2,0.00001747,0.00000018,-0.00002189,-0.00001769,-0.00001804,-0.0000293
 2,0.00016026,-0.00016370,-0.00020624,-0.00095251,0.00000167,0.00000473
 ,-0.00001289,-0.00000717,0.00000508,0.00001366,-0.00000115,-0.00000231
 ,0.00000228,-0.00000088,0.00000119,0.00000169,0.00261436,0.00123144,0.
 00081390,-0.01149055,0.00849873,-0.00844245,-0.00100858,-0.00120370,0.
 00027933,-0.09139786,0.06382437,-0.10570181,-0.00048601,0.00107906,-0.
 00098802,0.00072829,0.00005065,0.00046167,0.00002005,-0.00029697,-0.00
 006034,0.09896401,-0.07240953,0.11135371,0.00038943,0.00024487,-0.0006
 4632,0.00019957,0.00011845,-0.00017329,-0.00007788,0.00003304,-0.00004
 521,-0.00002034,-0.00001848,0.00021850,0.00003666,-0.00001739,-0.00006
 636,0.00003052,-0.00002113,0.00000446,-0.00000258,0.00000297,0.0000002
 2,0.00000874,0.00000243,0.00001548,0.00000183,-0.00000282,-0.00000686,
 -0.00000172,0.00001592,-0.00000142,-0.00000541,0.00000030,-0.00000385,
 -0.00000254,-0.00001661,0.00000514,0.00001720,0.00001207,-0.00000299,-
 0.00001090,-0.00000284,-0.00000898,-0.00000850,-0.00001580,0.00000948,
 0.00002775,-0.00000647,-0.00001511,-0.00001792,-0.00000890,-0.00000326
 ,0.00001148,0.00000671,-0.00000285,-0.00000229,-0.00000117,-0.00000467
 ,-0.00001046,0.00000055,-0.00000625,0.00000296,0.00000582,-0.00000022,
 -0.00001362,0.00000536,0.00001605,-0.00000369,-0.00000292,-0.00000235,
 0.00001202,-0.00004826,-0.00014745,0.00003115,0.00081337,-0.00050911,-
 0.00001647,0.00000729,0.00006771,0.00001667,0.00000927,-0.00001491,0.0
 0001029,-0.00001096,-0.00000123,-0.00000040,-0.00000317,-0.00001264,-0
 .00188480,0.00033042,-0.00064223,-0.01080344,0.00048561,0.00833547,0.0
 0082330,-0.00180376,0.00174396,-0.15755513,0.05191357,0.11524322,0.000
 56088,-0.00026444,0.00019247,0.00007285,0.00052946,0.00082112,-0.00025
 983,-0.00101115,-0.00105296,-0.01509209,0.00663755,0.01697055,0.172349
 89,0.00075901,-0.00012717,-0.00005615,0.00007400,-0.00018870,0.0001454
 6,0.00003700,-0.00000453,0.00000954,0.00000779,0.00001030,0.00013924,-
 0.00003979,0.00004652,-0.00004616,0.00001478,0.00001439,-0.00003378,-0
 .00001443,-0.00000506,0.00000299,-0.00001220,-0.00000138,0.00000130,-0
 .00000483,-0.00000598,-0.00001571,-0.00001367,0.00002467,0.00000388,-0
 .00000114,0.00000276,-0.00000109,-0.00000684,-0.00003454,0.00002632,0.
 00000743,0.00002254,-0.00002233,-0.00000459,-0.00000373,0.00000585,-0.
 00001004,-0.00004171,0.00004467,0.00003327,-0.00007205,-0.00011843,-0.
 00000098,0.00001540,0.00000187,-0.00000657,-0.00000002,0.00000485,0.00
 000333,0.00000046,-0.00000202,-0.00007404,0.00004064,-0.00005021,0.000
 03131,0.00000955,0.00000118,-0.00004522,0.00001865,0.00001888,0.000004
 59,0.00000402,0.00000743,-0.00010899,0.00002840,-0.00010669,0.00041695
 ,0.00028841,0.00068495,0.00005341,-0.00002713,-0.00005623,0.00002065,0
 .00000800,0.00000024,-0.00000190,-0.00000226,0.00000801,-0.00002024,0.
 00000978,-0.00000365,-0.00061792,0.00052360,-0.00020591,-0.02018168,0.
 00927308,0.01914418,-0.00006817,-0.00262696,0.00177612,0.05021682,-0.0
 6876731,-0.05035633,0.00025967,-0.00008182,-0.00030284,-0.00027667,0.0
 0055505,0.00063283,-0.00049862,-0.00125774,-0.00172258,0.00945134,-0.0
 0518441,-0.01175596,-0.05403001,0.07370000,-0.00068188,0.00008258,0.00
 057750,-0.00080778,0.00003735,0.00005286,0.00015026,-0.00011795,0.0001
 0763,-0.00005952,0.00021014,-0.00026773,0.00012366,-0.00015190,0.00008
 714,0.00008004,-0.00003222,-0.00006918,-0.00003078,-0.00000085,0.00000
 599,0.00000565,0.00001418,0.00002848,0.00002748,-0.00005382,-0.0000172
 5,0.00005241,0.00000698,-0.00007429,0.00000430,0.00000261,-0.00000689,
 -0.00001957,-0.00007562,0.00005054,-0.00008142,0.00008528,0.00004245,0
 .00001162,0.00000817,0.00000639,-0.00002372,-0.00003537,0.00007038,0.0
 0006480,-0.00005918,-0.00015898,-0.00003492,-0.00001503,0.00000786,-0.
 00001059,0.00000039,0.00000171,0.00000125,0.00000562,0.00000770,-0.000
 07782,0.00003309,-0.00003197,0.00002552,0.00000993,0.00000111,-0.00004
 928,0.00003645,0.00001777,0.00000045,0.00000759,0.00000730,0.00010652,
 -0.00019396,0.00010851,-0.00142734,0.00057295,-0.00217291,-0.00010055,
 0.00006856,0.00011934,-0.00000290,0.00001175,0.00000898,0.00001552,-0.
 00002554,-0.00000729,0.00002033,-0.00000882,-0.00000934,0.00320789,-0.
 00010371,0.00040502,0.00984893,-0.00285584,-0.00903865,-0.00087334,0.0
 0143659,-0.00111502,0.11639918,-0.05188436,-0.16892621,-0.00107810,-0.
 00009386,0.00015402,0.00006774,-0.00019622,-0.00015143,0.00033396,0.00
 032970,0.00073709,-0.01038315,0.00422854,0.01180624,-0.12935833,0.0549
 9340,0.18206863,0.00029029,0.00043007,-0.00006707,-0.00007274,0.000086
 28,-0.00002522,-0.00000718,-0.00000763,0.00000319,-0.00003627,0.000041
 13,0.00011064,0.00004523,-0.00003076,-0.00003314,0.00006241,-0.0000152
 8,-0.00003031,-0.00002670,0.00000235,0.00000498,-0.00000053,0.00000202
 ,0.00002002,0.00000087,-0.00010346,0.00000591,0.00006838,-0.00001687,-
 0.00008459,-0.00000141,0.00000220,-0.00000446,-0.00001344,0.00016738,-
 0.00003618,-0.00006061,0.00007922,0.00002315,0.00000351,-0.00000138,0.
 00000377,-0.00003683,-0.00001532,0.00009120,0.00009286,-0.00008199,-0.
 00012413,-0.00028268,-0.00005816,-0.00005813,-0.00004931,0.00003547,0.
 00004813,0.00000613,0.00000471,0.00000940,-0.00007859,-0.00014332,-0.0
 0013535,0.00006567,0.00004098,-0.00000447,-0.00013551,-0.00000535,0.00
 009819,-0.00000428,0.00002631,0.00002791,0.00001074,-0.00002060,-0.000
 08458,-0.00039431,0.00110313,-0.00021437,-0.00001737,0.00000282,0.0000
 4145,0.00000875,0.00000146,-0.00000905,0.00000441,-0.00000546,-0.00000
 369,0.00000167,-0.00000012,-0.00000566,-0.00083599,0.00051488,-0.00027
 604,-0.00866626,-0.00966726,-0.00630694,0.00058561,-0.00197603,0.00119
 447,-0.10078095,-0.07160808,-0.07761433,0.00018384,-0.00014833,0.00023
 814,0.00032761,-0.00057459,-0.00072872,-0.00062938,0.00058178,0.001204
 79,-0.01017840,-0.01536545,-0.01460489,0.01118681,0.01464718,0.0145535
 1,0.10936394,0.00081049,0.00104901,0.00051557,0.00066664,0.00000207,0.
 00021823,-0.00011110,0.00009073,-0.00007836,0.00007186,-0.00008630,-0.
 00021536,-0.00009668,0.00008790,0.00007286,-0.00002849,-0.00004365,-0.
 00001589,0.00004007,-0.00000219,0.00000265,-0.00000277,0.00001224,-0.0
 0002214,-0.00001014,-0.00004323,0.00003226,-0.00007609,0.00005779,0.00
 006317,0.00000290,0.00000259,-0.00000139,-0.00003662,-0.00016989,-0.00
 005238,0.00005977,-0.00010122,-0.00003105,-0.00001057,-0.00000596,0.00
 000507,-0.00009107,0.00009277,0.00010885,-0.00018333,0.00012751,-0.000
 02869,0.00019470,0.00005305,-0.00007211,0.00003787,-0.00013653,0.00001
 951,-0.00000180,-0.00001136,-0.00001137,-0.00000747,0.00004574,0.00005
 967,-0.00008723,-0.00007509,-0.00001923,0.00015297,0.00002543,-0.00013
 480,0.00000860,-0.00001653,-0.00001520,-0.00003509,0.00005181,0.000158
 86,0.00104899,-0.00168372,-0.00052937,0.00003714,-0.00002990,-0.000069
 82,-0.00001012,-0.00000450,0.00001264,-0.00001216,0.00001411,0.0000047
 6,-0.00000498,0.00000578,0.00000847,-0.00295054,0.00005466,-0.00075166
 ,-0.01315390,-0.01588723,-0.01452745,0.00076171,-0.00253704,0.00194928
 ,-0.07241664,-0.14744868,-0.10323456,0.00086443,0.00029756,0.00021004,
 0.00001679,-0.00030013,-0.00056379,-0.00096292,0.00091630,0.00108663,0
 .00732745,0.01178111,0.01130724,-0.00388875,-0.00616373,-0.00627759,0.
 08207608,0.15997872,-0.00053534,0.00032814,-0.00002971,0.00020333,0.00
 014610,-0.00001324,-0.00006317,0.00005302,-0.00002079,0.00001029,-0.00
 003008,-0.00005083,-0.00001649,0.00000765,0.00001421,-0.00005200,-0.00
 000231,0.00006459,0.00001595,0.00000020,-0.00000879,0.00000682,-0.0000
 0687,-0.00001626,-0.00004720,-0.00000681,0.00003006,0.00001990,-0.0000
 5918,-0.00000774,-0.00000018,-0.00000437,0.00000649,0.00002583,0.00029
 471,-0.00019285,0.00001362,-0.00002791,0.00002050,0.00000640,0.0000006
 9,-0.00001034,0.00003938,0.00005401,-0.00010307,-0.00028210,0.00020550
 ,0.00024706,0.00003189,-0.00007691,-0.00011192,-0.00003313,0.00002647,
 -0.00001516,-0.00000315,0.00000055,0.00000471,0.00024813,-0.00039778,-
 0.00003720,0.00001361,0.00007390,-0.00000662,-0.00000395,-0.00006855,-
 0.00003562,-0.00001064,0.00001528,0.00001497,0.00001836,0.00002874,0.0
 0003877,0.00017693,-0.00026611,-0.00021169,-0.00000056,0.00000312,-0.0
 0002367,-0.00001210,-0.00000570,0.00000376,-0.00000271,0.00000615,0.00
 000055,0.00000436,-0.00000309,0.00000777,-0.00051898,-0.00008214,0.000
 49603,0.00880309,0.01126862,0.01400333,0.00068266,0.00170359,-0.001272
 37,-0.07659459,-0.10197743,-0.15377081,0.00017456,-0.00012396,-0.00021
 729,0.00007310,0.00027953,0.00048489,0.00072932,-0.00072639,-0.0010708
 4,-0.00497872,-0.00864972,-0.00914595,-0.01091499,-0.01279709,-0.01443
 350,0.08277248,0.11081642,0.16536855||-0.00000045,0.00000054,-0.000000
 64,0.00000192,0.00000032,-0.00000046,0.00000144,0.00000010,-0.00000127
 ,0.00000065,0.00000216,-0.00000210,0.00000196,0.00000175,-0.00000213,0
 .00000046,0.00000031,-0.00000148,0.00000030,0.00000127,-0.00000059,0.0
 0000137,0.00000082,-0.00000150,0.00000018,0.00000013,-0.00000039,0.000
 00183,-0.00000121,-0.00000039,0.00000186,-0.00000136,-0.00000090,-0.00
 000012,-0.00000100,0.00000052,0.00000122,-0.00000182,0.00000042,0.0000
 0093,-0.00000267,0.00000040,-0.00000030,-0.00000146,0.00000094,-0.0000
 0119,0.00000009,0.00000067,-0.00000125,0.00000080,0.00000066,-0.000000
 64,-0.00000192,0.00000148,-0.00000060,-0.00000271,0.00000184,-0.000001
 81,-0.00000040,0.00000151,-0.00000255,0.00000007,0.00000189,-0.0000017
 0,-0.00000145,0.00000205,-0.00000219,-0.00000175,0.00000253,0.00000051
 ,0.00000213,-0.00000105,-0.00000051,0.00000066,-0.00000009,0.00000072,
 0.00000299,-0.00000222,0.00000006,0.00000348,-0.00000183,0.00000132,0.
 00000305,-0.00000247,0.00000062,0.00000363,-0.00000233,0.00000160,0.00
 000017,-0.00000084,-0.00000030,-0.00000068,0.00000062,-0.00000014,-0.0
 0000152,0.00000076,-0.00000113,0.,0.00000103,0.00000093,-0.00000153,0.
 00000014,-0.00000073,-0.00000158,0.00000136,0.00000048,-0.00000194,0.0
 0000070,-0.00000179,-0.00000021,0.00000144,-0.00000142,0.00000078,0.00
 000064,-0.00000155,-0.00000004,0.00000112|||@


 NEVER LOSE YOUR IGNORANCE, IT CAN'T BE REPLACED.
   -- ANDY CAPP
 Job cpu time:       0 days  0 hours 40 minutes 51.0 seconds.
 File lengths (MBytes):  RWF=    641 Int=      0 D2E=      0 Chk=     14 Scr=      1
 Normal termination of Gaussian 09 at Sat Feb 03 11:51:18 2024.
