 Entering Link 1 = C:\G09W\l1.exe PID=     41336.
  
 Copyright (c) 1988,1990,1992,1993,1995,1998,2003,2009,2013,
            Gaussian, Inc.  All Rights Reserved.
  
 This is part of the Gaussian(R) 09 program.  It is based on
 the Gaussian(R) 03 system (copyright 2003, Gaussian, Inc.),
 the Gaussian(R) 98 system (copyright 1998, Gaussian, Inc.),
 the Gaussian(R) 94 system (copyright 1995, Gaussian, Inc.),
 the Gaussian 92(TM) system (copyright 1992, Gaussian, Inc.),
 the Gaussian 90(TM) system (copyright 1990, Gaussian, Inc.),
 the Gaussian 88(TM) system (copyright 1988, Gaussian, Inc.),
 the Gaussian 86(TM) system (copyright 1986, Carnegie Mellon
 University), and the Gaussian 82(TM) system (copyright 1983,
 Carnegie Mellon University). Gaussian is a federally registered
 trademark of Gaussian, Inc.
  
 This software contains proprietary and confidential information,
 including trade secrets, belonging to Gaussian, Inc.
  
 This software is provided under written license and may be
 used, copied, transmitted, or stored only in accord with that
 written license.
  
 The following legend is applicable only to US Government
 contracts under FAR:
  
                    RESTRICTED RIGHTS LEGEND
  
 Use, reproduction and disclosure by the US Government is
 subject to restrictions as set forth in subparagraphs (a)
 and (c) of the Commercial Computer Software - Restricted
 Rights clause in FAR 52.227-19.
  
 Gaussian, Inc.
 340 Quinnipiac St., Bldg. 40, Wallingford CT 06492
  
  
 ---------------------------------------------------------------
 Warning -- This program may not be used in any manner that
 competes with the business of Gaussian, Inc. or will provide
 assistance to any competitor of Gaussian, Inc.  The licensee
 of this program is prohibited from giving any competitor of
 Gaussian, Inc. access to this program.  By using this program,
 the user acknowledges that Gaussian, Inc. is engaged in the
 business of creating and licensing software in the field of
 computational chemistry and represents and warrants to the
 licensee that it is not a competitor of Gaussian, Inc. and that
 it will not use this program in any manner prohibited above.
 ---------------------------------------------------------------
  

 Cite this work as:
 Gaussian 09, Revision D.01,
 M. J. Frisch, G. W. Trucks, H. B. Schlegel, G. E. Scuseria, 
 M. A. Robb, J. R. Cheeseman, G. Scalmani, V. Barone, B. Mennucci, 
 G. A. Petersson, H. Nakatsuji, M. Caricato, X. Li, H. P. Hratchian, 
 A. F. Izmaylov, J. Bloino, G. Zheng, J. L. Sonnenberg, M. Hada, 
 M. Ehara, K. Toyota, R. Fukuda, J. Hasegawa, M. Ishida, T. Nakajima, 
 Y. Honda, O. Kitao, H. Nakai, T. Vreven, J. A. Montgomery, Jr., 
 J. E. Peralta, F. Ogliaro, M. Bearpark, J. J. Heyd, E. Brothers, 
 K. N. Kudin, V. N. Staroverov, T. Keith, R. Kobayashi, J. Normand, 
 K. Raghavachari, A. Rendell, J. C. Burant, S. S. Iyengar, J. Tomasi, 
 M. Cossi, N. Rega, J. M. Millam, M. Klene, J. E. Knox, J. B. Cross, 
 V. Bakken, C. Adamo, J. Jaramillo, R. Gomperts, R. E. Stratmann, 
 O. Yazyev, A. J. Austin, R. Cammi, C. Pomelli, J. W. Ochterski, 
 R. L. Martin, K. Morokuma, V. G. Zakrzewski, G. A. Voth, 
 P. Salvador, J. J. Dannenberg, S. Dapprich, A. D. Daniels, 
 O. Farkas, J. B. Foresman, J. V. Ortiz, J. Cioslowski, 
 and D. J. Fox, Gaussian, Inc., Wallingford CT, 2013.
 
 ******************************************
 Gaussian 09:  IA32W-G09RevD.01 24-Apr-2013
                28-Jan-2024 
 ******************************************
 %nprocshared=8
 Will use up to    8 processors via shared memory.
 %chk=Preview_31ihs.chk
 -------------------------------------------------------------
 #p opt=tight freq b3lyp/6-31g(d) guess=save geom=connectivity
 -------------------------------------------------------------
 1/7=10,14=-1,18=20,19=15,26=3,38=1,57=2/1,3;
 2/9=110,12=2,17=6,18=5,40=1/2;
 3/5=1,6=6,7=1,11=2,16=1,25=1,30=1,71=1,74=-5/1,2,3;
 4//1;
 5/5=2,38=5/2;
 6/7=2,8=2,9=2,10=2,28=1/1;
 7//1,2,3,16;
 1/7=10,14=-1,18=20,19=15,26=3/3(2);
 2/9=110/2;
 99//99;
 2/9=110/2;
 3/5=1,6=6,7=1,11=2,16=1,25=1,30=1,71=1,74=-5/1,2,3;
 4/5=5,16=3,69=1/1;
 5/5=2,38=5/2;
 7//1,2,3,16;
 1/7=10,14=-1,18=20,19=15,26=3/3(-5);
 2/9=110/2;
 6/7=2,8=2,9=2,10=2,19=2,28=1/1;
 99/9=1/99;
 Leave Link    1 at Sun Jan 28 12:46:44 2024, MaxMem=           0 cpu:         0.0
 (Enter C:\G09W\l101.exe)
 --------------------------------
 MATrp OptFreq tight B3LYP/6-31Gd
 --------------------------------
 Symbolic Z-matrix:
 Charge =  0 Multiplicity = 1
 N                     1.80603   2.0318   -0.11241 
 C                     1.02164   1.12568  -0.92808 
 H                     1.65812   1.69331  -1.61332 
 C                     0.10842   2.12589  -0.23427 
 O                    -0.54395   2.95331  -0.83324 
 C                     0.1756    0.14835  -1.80785 
 H                    -0.41602   0.75938  -2.49883 
 H                     0.90047  -0.41108  -2.40719 
 C                    -0.70244  -0.79538  -1.03973 
 C                    -0.36648  -2.07066  -0.65467 
 H                     0.5416   -2.62677  -0.84565 
 C                    -2.04072  -0.56322  -0.54193 
 N                    -1.40324  -2.64295   0.05794 
 H                    -1.42017  -3.59093   0.39989 
 C                    -2.44906  -1.74593   0.1363 
 C                    -2.94201   0.51597  -0.61604 
 H                    -2.66292   1.43294  -1.12662 
 C                    -3.70661  -1.87215   0.73594 
 H                    -3.99889  -2.78543   1.24823 
 C                    -4.19252   0.39385  -0.02155 
 H                    -4.89544   1.22067  -0.07842 
 C                    -4.5712   -0.7875    0.64899 
 H                    -5.55676  -0.85325   1.10188 
 O                     0.06515   1.96077   1.10446 
 H                     1.37859   2.38318   0.73033 
 C                    -0.86409   2.8089    1.80612 
 H                    -0.69935   2.60829   2.86495 
 H                    -0.67133   3.85865   1.57443 
 H                    -1.88724   2.5522    1.52063 
 C                     3.10544   2.32261  -0.42311 
 C                     3.81056   3.26556   0.52287 
 C                     5.08384   3.56506   0.24442 
 C                     3.08016   3.82788   1.71902 
 O                     3.65367   1.84446  -1.41556 
 H                     5.66257   4.23745   0.87172 
 H                     5.56456   3.13701  -0.62891 
 H                     3.73133   4.49309   2.29322 
 H                     2.19563   4.4064    1.42101 
 H                     2.73746   3.03509   2.39825 
 
 NAtoms=     39 NQM=       39 NQMF=       0 NMMI=      0 NMMIF=      0
                NMic=       0 NMicF=      0.
                    Isotopes and Nuclear Properties:
 (Nuclear quadrupole moments (NQMom) in fm**2, nuclear magnetic moments (NMagM)
  in nuclear magnetons)

  Atom         1           2           3           4           5           6           7           8           9          10
 IAtWgt=          14          12           1          12          16          12           1           1          12          12
 AtmWgt=  14.0030740  12.0000000   1.0078250  12.0000000  15.9949146  12.0000000   1.0078250   1.0078250  12.0000000  12.0000000
 NucSpn=           2           0           1           0           0           0           1           1           0           0
 AtZEff=   0.0000000   0.0000000   0.0000000   0.0000000   0.0000000   0.0000000   0.0000000   0.0000000   0.0000000   0.0000000
 NQMom=    2.0440000   0.0000000   0.0000000   0.0000000   0.0000000   0.0000000   0.0000000   0.0000000   0.0000000   0.0000000
 NMagM=    0.4037610   0.0000000   2.7928460   0.0000000   0.0000000   0.0000000   2.7928460   2.7928460   0.0000000   0.0000000
 AtZNuc=   7.0000000   6.0000000   1.0000000   6.0000000   8.0000000   6.0000000   1.0000000   1.0000000   6.0000000   6.0000000

  Atom        11          12          13          14          15          16          17          18          19          20
 IAtWgt=           1          12          14           1          12          12           1          12           1          12
 AtmWgt=   1.0078250  12.0000000  14.0030740   1.0078250  12.0000000  12.0000000   1.0078250  12.0000000   1.0078250  12.0000000
 NucSpn=           1           0           2           1           0           0           1           0           1           0
 AtZEff=   0.0000000   0.0000000   0.0000000   0.0000000   0.0000000   0.0000000   0.0000000   0.0000000   0.0000000   0.0000000
 NQMom=    0.0000000   0.0000000   2.0440000   0.0000000   0.0000000   0.0000000   0.0000000   0.0000000   0.0000000   0.0000000
 NMagM=    2.7928460   0.0000000   0.4037610   2.7928460   0.0000000   0.0000000   2.7928460   0.0000000   2.7928460   0.0000000
 AtZNuc=   1.0000000   6.0000000   7.0000000   1.0000000   6.0000000   6.0000000   1.0000000   6.0000000   1.0000000   6.0000000

  Atom        21          22          23          24          25          26          27          28          29          30
 IAtWgt=           1          12           1          16           1          12           1           1           1          12
 AtmWgt=   1.0078250  12.0000000   1.0078250  15.9949146   1.0078250  12.0000000   1.0078250   1.0078250   1.0078250  12.0000000
 NucSpn=           1           0           1           0           1           0           1           1           1           0
 AtZEff=   0.0000000   0.0000000   0.0000000   0.0000000   0.0000000   0.0000000   0.0000000   0.0000000   0.0000000   0.0000000
 NQMom=    0.0000000   0.0000000   0.0000000   0.0000000   0.0000000   0.0000000   0.0000000   0.0000000   0.0000000   0.0000000
 NMagM=    2.7928460   0.0000000   2.7928460   0.0000000   2.7928460   0.0000000   2.7928460   2.7928460   2.7928460   0.0000000
 AtZNuc=   1.0000000   6.0000000   1.0000000   8.0000000   1.0000000   6.0000000   1.0000000   1.0000000   1.0000000   6.0000000

  Atom        31          32          33          34          35          36          37          38          39
 IAtWgt=          12          12          12          16           1           1           1           1           1
 AtmWgt=  12.0000000  12.0000000  12.0000000  15.9949146   1.0078250   1.0078250   1.0078250   1.0078250   1.0078250
 NucSpn=           0           0           0           0           1           1           1           1           1
 AtZEff=   0.0000000   0.0000000   0.0000000   0.0000000   0.0000000   0.0000000   0.0000000   0.0000000   0.0000000
 NQMom=    0.0000000   0.0000000   0.0000000   0.0000000   0.0000000   0.0000000   0.0000000   0.0000000   0.0000000
 NMagM=    0.0000000   0.0000000   0.0000000   0.0000000   2.7928460   2.7928460   2.7928460   2.7928460   2.7928460
 AtZNuc=   6.0000000   6.0000000   6.0000000   8.0000000   1.0000000   1.0000000   1.0000000   1.0000000   1.0000000
 Leave Link  101 at Sun Jan 28 12:46:44 2024, MaxMem=    33554432 cpu:         0.0
 (Enter C:\G09W\l103.exe)

 GradGradGradGradGradGradGradGradGradGradGradGradGradGradGradGradGradGrad
 Berny optimization.
 Initialization pass.
                           ----------------------------
                           !    Initial Parameters    !
                           ! (Angstroms and Degrees)  !
 --------------------------                            --------------------------
 ! Name  Definition              Value          Derivative Info.                !
 --------------------------------------------------------------------------------
 ! R1    R(1,2)                  1.4497         estimate D2E/DX2                !
 ! R2    R(1,25)                 1.0082         estimate D2E/DX2                !
 ! R3    R(1,30)                 1.3673         estimate D2E/DX2                !
 ! R4    R(2,3)                  1.094          estimate D2E/DX2                !
 ! R5    R(2,4)                  1.5218         estimate D2E/DX2                !
 ! R6    R(2,6)                  1.5636         estimate D2E/DX2                !
 ! R7    R(4,5)                  1.212          estimate D2E/DX2                !
 ! R8    R(4,24)                 1.3496         estimate D2E/DX2                !
 ! R9    R(6,7)                  1.0958         estimate D2E/DX2                !
 ! R10   R(6,8)                  1.0944         estimate D2E/DX2                !
 ! R11   R(6,9)                  1.5005         estimate D2E/DX2                !
 ! R12   R(9,10)                 1.3739         estimate D2E/DX2                !
 ! R13   R(9,12)                 1.4466         estimate D2E/DX2                !
 ! R14   R(10,11)                1.0818         estimate D2E/DX2                !
 ! R15   R(10,13)                1.3821         estimate D2E/DX2                !
 ! R16   R(12,15)                1.4232         estimate D2E/DX2                !
 ! R17   R(12,16)                1.408          estimate D2E/DX2                !
 ! R18   R(13,14)                1.0079         estimate D2E/DX2                !
 ! R19   R(13,15)                1.38           estimate D2E/DX2                !
 ! R20   R(15,18)                1.3989         estimate D2E/DX2                !
 ! R21   R(16,17)                1.086          estimate D2E/DX2                !
 ! R22   R(16,20)                1.39           estimate D2E/DX2                !
 ! R23   R(18,19)                1.0872         estimate D2E/DX2                !
 ! R24   R(18,22)                1.3898         estimate D2E/DX2                !
 ! R25   R(20,21)                1.0867         estimate D2E/DX2                !
 ! R26   R(20,22)                1.4102         estimate D2E/DX2                !
 ! R27   R(22,23)                1.0866         estimate D2E/DX2                !
 ! R28   R(24,26)                1.4405         estimate D2E/DX2                !
 ! R29   R(26,27)                1.0902         estimate D2E/DX2                !
 ! R30   R(26,28)                1.0922         estimate D2E/DX2                !
 ! R31   R(26,29)                1.0928         estimate D2E/DX2                !
 ! R32   R(30,31)                1.5104         estimate D2E/DX2                !
 ! R33   R(30,34)                1.2305         estimate D2E/DX2                !
 ! R34   R(31,32)                1.3373         estimate D2E/DX2                !
 ! R35   R(31,33)                1.5101         estimate D2E/DX2                !
 ! R36   R(32,35)                1.0865         estimate D2E/DX2                !
 ! R37   R(32,36)                1.0849         estimate D2E/DX2                !
 ! R38   R(33,37)                1.0937         estimate D2E/DX2                !
 ! R39   R(33,38)                1.0981         estimate D2E/DX2                !
 ! R40   R(33,39)                1.0988         estimate D2E/DX2                !
 ! A1    A(2,1,25)             117.308          estimate D2E/DX2                !
 ! A2    A(2,1,30)             121.2841         estimate D2E/DX2                !
 ! A3    A(25,1,30)            121.2478         estimate D2E/DX2                !
 ! A4    A(1,2,3)               73.3412         estimate D2E/DX2                !
 ! A5    A(1,2,4)               69.9619         estimate D2E/DX2                !
 ! A6    A(3,2,4)              107.0783         estimate D2E/DX2                !
 ! A7    A(3,2,6)              106.6588         estimate D2E/DX2                !
 ! A8    A(4,2,6)              110.0381         estimate D2E/DX2                !
 ! A9    A(2,4,5)              123.1203         estimate D2E/DX2                !
 ! A10   A(2,4,24)             113.0226         estimate D2E/DX2                !
 ! A11   A(5,4,24)             123.8134         estimate D2E/DX2                !
 ! A12   A(2,6,7)              107.3605         estimate D2E/DX2                !
 ! A13   A(2,6,8)              105.6207         estimate D2E/DX2                !
 ! A14   A(2,6,9)              114.9416         estimate D2E/DX2                !
 ! A15   A(7,6,8)              107.2965         estimate D2E/DX2                !
 ! A16   A(7,6,9)              110.95           estimate D2E/DX2                !
 ! A17   A(8,6,9)              110.2693         estimate D2E/DX2                !
 ! A18   A(6,9,10)             125.7455         estimate D2E/DX2                !
 ! A19   A(6,9,12)             128.0648         estimate D2E/DX2                !
 ! A20   A(10,9,12)            106.1853         estimate D2E/DX2                !
 ! A21   A(9,10,11)            129.268          estimate D2E/DX2                !
 ! A22   A(9,10,13)            110.2085         estimate D2E/DX2                !
 ! A23   A(11,10,13)           120.5195         estimate D2E/DX2                !
 ! A24   A(9,12,15)            107.2204         estimate D2E/DX2                !
 ! A25   A(9,12,16)            134.1927         estimate D2E/DX2                !
 ! A26   A(15,12,16)           118.5792         estimate D2E/DX2                !
 ! A27   A(10,13,14)           125.2381         estimate D2E/DX2                !
 ! A28   A(10,13,15)           109.1835         estimate D2E/DX2                !
 ! A29   A(14,13,15)           125.4051         estimate D2E/DX2                !
 ! A30   A(12,15,13)           107.1977         estimate D2E/DX2                !
 ! A31   A(12,15,18)           122.4915         estimate D2E/DX2                !
 ! A32   A(13,15,18)           130.3105         estimate D2E/DX2                !
 ! A33   A(12,16,17)           120.4915         estimate D2E/DX2                !
 ! A34   A(12,16,20)           119.0802         estimate D2E/DX2                !
 ! A35   A(17,16,20)           120.4277         estimate D2E/DX2                !
 ! A36   A(15,18,19)           121.2967         estimate D2E/DX2                !
 ! A37   A(15,18,22)           117.5164         estimate D2E/DX2                !
 ! A38   A(19,18,22)           121.1866         estimate D2E/DX2                !
 ! A39   A(16,20,21)           119.5178         estimate D2E/DX2                !
 ! A40   A(16,20,22)           121.235          estimate D2E/DX2                !
 ! A41   A(21,20,22)           119.2461         estimate D2E/DX2                !
 ! A42   A(18,22,20)           121.0968         estimate D2E/DX2                !
 ! A43   A(18,22,23)           119.4026         estimate D2E/DX2                !
 ! A44   A(20,22,23)           119.5001         estimate D2E/DX2                !
 ! A45   A(4,24,26)            115.5834         estimate D2E/DX2                !
 ! A46   A(24,26,27)           105.5015         estimate D2E/DX2                !
 ! A47   A(24,26,28)           110.4092         estimate D2E/DX2                !
 ! A48   A(24,26,29)           109.7795         estimate D2E/DX2                !
 ! A49   A(27,26,28)           110.8694         estimate D2E/DX2                !
 ! A50   A(27,26,29)           110.6078         estimate D2E/DX2                !
 ! A51   A(28,26,29)           109.6091         estimate D2E/DX2                !
 ! A52   A(1,30,31)            115.7299         estimate D2E/DX2                !
 ! A53   A(1,30,34)            121.6035         estimate D2E/DX2                !
 ! A54   A(31,30,34)           122.6661         estimate D2E/DX2                !
 ! A55   A(30,31,32)           116.9941         estimate D2E/DX2                !
 ! A56   A(30,31,33)           120.1836         estimate D2E/DX2                !
 ! A57   A(32,31,33)           122.8222         estimate D2E/DX2                !
 ! A58   A(31,32,35)           121.7021         estimate D2E/DX2                !
 ! A59   A(31,32,36)           120.0742         estimate D2E/DX2                !
 ! A60   A(35,32,36)           118.2232         estimate D2E/DX2                !
 ! A61   A(31,33,37)           110.7538         estimate D2E/DX2                !
 ! A62   A(31,33,38)           111.7654         estimate D2E/DX2                !
 ! A63   A(31,33,39)           111.8286         estimate D2E/DX2                !
 ! A64   A(37,33,38)           107.5551         estimate D2E/DX2                !
 ! A65   A(37,33,39)           107.4569         estimate D2E/DX2                !
 ! A66   A(38,33,39)           107.2559         estimate D2E/DX2                !
 ! A67   L(1,2,6,3,-1)         180.0            estimate D2E/DX2                !
 ! A68   L(1,2,6,3,-2)         180.0            estimate D2E/DX2                !
 ! D1    D(25,1,2,3)           147.8754         estimate D2E/DX2                !
 ! D2    D(25,1,2,4)            32.0625         estimate D2E/DX2                !
 ! D3    D(30,1,2,3)           -36.6692         estimate D2E/DX2                !
 ! D4    D(30,1,2,4)          -152.4821         estimate D2E/DX2                !
 ! D5    D(25,1,6,7)            87.7674         estimate D2E/DX2                !
 ! D6    D(25,1,6,8)          -157.9736         estimate D2E/DX2                !
 ! D7    D(25,1,6,9)           -36.1876         estimate D2E/DX2                !
 ! D8    D(30,1,6,7)           -96.7771         estimate D2E/DX2                !
 ! D9    D(30,1,6,8)            17.4819         estimate D2E/DX2                !
 ! D10   D(30,1,6,9)           139.2679         estimate D2E/DX2                !
 ! D11   D(2,1,30,31)         -179.1407         estimate D2E/DX2                !
 ! D12   D(2,1,30,34)            1.1117         estimate D2E/DX2                !
 ! D13   D(25,1,30,31)          -3.8644         estimate D2E/DX2                !
 ! D14   D(25,1,30,34)         176.388          estimate D2E/DX2                !
 ! D15   D(1,2,4,5)            114.7816         estimate D2E/DX2                !
 ! D16   D(1,2,4,24)           -67.5418         estimate D2E/DX2                !
 ! D17   D(3,2,4,5)             50.33           estimate D2E/DX2                !
 ! D18   D(3,2,4,24)          -131.9934         estimate D2E/DX2                !
 ! D19   D(6,2,4,5)            -65.2184         estimate D2E/DX2                !
 ! D20   D(6,2,4,24)           112.4582         estimate D2E/DX2                !
 ! D21   D(3,2,6,7)            -60.1079         estimate D2E/DX2                !
 ! D22   D(3,2,6,8)             54.151          estimate D2E/DX2                !
 ! D23   D(3,2,6,9)            175.937          estimate D2E/DX2                !
 ! D24   D(4,2,6,7)             55.705          estimate D2E/DX2                !
 ! D25   D(4,2,6,8)            169.964          estimate D2E/DX2                !
 ! D26   D(4,2,6,9)            -68.25           estimate D2E/DX2                !
 ! D27   D(2,4,24,26)         -175.2558         estimate D2E/DX2                !
 ! D28   D(5,4,24,26)            2.4022         estimate D2E/DX2                !
 ! D29   D(2,6,9,10)           -93.4151         estimate D2E/DX2                !
 ! D30   D(2,6,9,12)            85.7127         estimate D2E/DX2                !
 ! D31   D(7,6,9,10)           144.5508         estimate D2E/DX2                !
 ! D32   D(7,6,9,12)           -36.3215         estimate D2E/DX2                !
 ! D33   D(8,6,9,10)            25.815          estimate D2E/DX2                !
 ! D34   D(8,6,9,12)          -155.0572         estimate D2E/DX2                !
 ! D35   D(6,9,10,11)           -1.8964         estimate D2E/DX2                !
 ! D36   D(6,9,10,13)          178.8413         estimate D2E/DX2                !
 ! D37   D(12,9,10,11)         178.8186         estimate D2E/DX2                !
 ! D38   D(12,9,10,13)          -0.4436         estimate D2E/DX2                !
 ! D39   D(6,9,12,15)         -179.227          estimate D2E/DX2                !
 ! D40   D(6,9,12,16)            1.8328         estimate D2E/DX2                !
 ! D41   D(10,9,12,15)           0.0359         estimate D2E/DX2                !
 ! D42   D(10,9,12,16)        -178.9043         estimate D2E/DX2                !
 ! D43   D(9,10,13,14)         176.1227         estimate D2E/DX2                !
 ! D44   D(9,10,13,15)           0.7021         estimate D2E/DX2                !
 ! D45   D(11,10,13,14)         -3.2143         estimate D2E/DX2                !
 ! D46   D(11,10,13,15)       -178.6349         estimate D2E/DX2                !
 ! D47   D(9,12,15,13)           0.3782         estimate D2E/DX2                !
 ! D48   D(9,12,15,18)        -179.4728         estimate D2E/DX2                !
 ! D49   D(16,12,15,13)        179.5129         estimate D2E/DX2                !
 ! D50   D(16,12,15,18)         -0.3381         estimate D2E/DX2                !
 ! D51   D(9,12,16,17)          -1.1117         estimate D2E/DX2                !
 ! D52   D(9,12,16,20)         179.1599         estimate D2E/DX2                !
 ! D53   D(15,12,16,17)       -179.959          estimate D2E/DX2                !
 ! D54   D(15,12,16,20)          0.3127         estimate D2E/DX2                !
 ! D55   D(10,13,15,12)         -0.6557         estimate D2E/DX2                !
 ! D56   D(10,13,15,18)        179.1794         estimate D2E/DX2                !
 ! D57   D(14,13,15,12)       -176.0668         estimate D2E/DX2                !
 ! D58   D(14,13,15,18)          3.7683         estimate D2E/DX2                !
 ! D59   D(12,15,18,19)        179.9252         estimate D2E/DX2                !
 ! D60   D(12,15,18,22)          0.1237         estimate D2E/DX2                !
 ! D61   D(13,15,18,19)          0.112          estimate D2E/DX2                !
 ! D62   D(13,15,18,22)       -179.6896         estimate D2E/DX2                !
 ! D63   D(12,16,20,21)       -179.717          estimate D2E/DX2                !
 ! D64   D(12,16,20,22)         -0.0909         estimate D2E/DX2                !
 ! D65   D(17,16,20,21)          0.5545         estimate D2E/DX2                !
 ! D66   D(17,16,20,22)       -179.8194         estimate D2E/DX2                !
 ! D67   D(15,18,22,20)          0.1108         estimate D2E/DX2                !
 ! D68   D(15,18,22,23)        179.8487         estimate D2E/DX2                !
 ! D69   D(19,18,22,20)       -179.691          estimate D2E/DX2                !
 ! D70   D(19,18,22,23)          0.0469         estimate D2E/DX2                !
 ! D71   D(16,20,22,18)         -0.1288         estimate D2E/DX2                !
 ! D72   D(16,20,22,23)       -179.8665         estimate D2E/DX2                !
 ! D73   D(21,20,22,18)        179.4983         estimate D2E/DX2                !
 ! D74   D(21,20,22,23)         -0.2393         estimate D2E/DX2                !
 ! D75   D(4,24,26,27)        -174.8931         estimate D2E/DX2                !
 ! D76   D(4,24,26,28)         -55.0487         estimate D2E/DX2                !
 ! D77   D(4,24,26,29)          65.9044         estimate D2E/DX2                !
 ! D78   D(1,30,31,32)         179.8586         estimate D2E/DX2                !
 ! D79   D(1,30,31,33)          -0.2118         estimate D2E/DX2                !
 ! D80   D(34,30,31,32)         -0.3968         estimate D2E/DX2                !
 ! D81   D(34,30,31,33)        179.5328         estimate D2E/DX2                !
 ! D82   D(30,31,32,35)        179.8174         estimate D2E/DX2                !
 ! D83   D(30,31,32,36)          0.0703         estimate D2E/DX2                !
 ! D84   D(33,31,32,35)         -0.1102         estimate D2E/DX2                !
 ! D85   D(33,31,32,36)       -179.8573         estimate D2E/DX2                !
 ! D86   D(30,31,33,37)       -179.7313         estimate D2E/DX2                !
 ! D87   D(30,31,33,38)        -59.823          estimate D2E/DX2                !
 ! D88   D(30,31,33,39)         60.4426         estimate D2E/DX2                !
 ! D89   D(32,31,33,37)          0.194          estimate D2E/DX2                !
 ! D90   D(32,31,33,38)        120.1023         estimate D2E/DX2                !
 ! D91   D(32,31,33,39)       -119.632          estimate D2E/DX2                !
 --------------------------------------------------------------------------------
 Trust Radius=3.00D-01 FncErr=1.00D-07 GrdErr=1.00D-06
 Number of steps in this run=    209 maximum allowed number of steps=    234.
 GradGradGradGradGradGradGradGradGradGradGradGradGradGradGradGradGradGrad

 Leave Link  103 at Sun Jan 28 12:46:44 2024, MaxMem=    33554432 cpu:         0.0
 (Enter C:\G09W\l202.exe)
                          Input orientation:                          
 ---------------------------------------------------------------------
 Center     Atomic      Atomic             Coordinates (Angstroms)
 Number     Number       Type             X           Y           Z
 ---------------------------------------------------------------------
      1          7           0        1.806028    2.031797   -0.112413
      2          6           0        1.021636    1.125680   -0.928082
      3          1           0        1.658118    1.693312   -1.613324
      4          6           0        0.108421    2.125887   -0.234269
      5          8           0       -0.543948    2.953311   -0.833239
      6          6           0        0.175601    0.148353   -1.807853
      7          1           0       -0.416021    0.759376   -2.498831
      8          1           0        0.900472   -0.411079   -2.407192
      9          6           0       -0.702440   -0.795376   -1.039728
     10          6           0       -0.366483   -2.070663   -0.654673
     11          1           0        0.541596   -2.626769   -0.845654
     12          6           0       -2.040722   -0.563219   -0.541925
     13          7           0       -1.403239   -2.642948    0.057943
     14          1           0       -1.420168   -3.590925    0.399891
     15          6           0       -2.449059   -1.745930    0.136298
     16          6           0       -2.942009    0.515968   -0.616036
     17          1           0       -2.662919    1.432938   -1.126617
     18          6           0       -3.706605   -1.872154    0.735937
     19          1           0       -3.998892   -2.785425    1.248232
     20          6           0       -4.192516    0.393853   -0.021545
     21          1           0       -4.895440    1.220665   -0.078421
     22          6           0       -4.571200   -0.787498    0.648994
     23          1           0       -5.556756   -0.853246    1.101875
     24          8           0        0.065147    1.960771    1.104455
     25          1           0        1.378587    2.383180    0.730334
     26          6           0       -0.864085    2.808898    1.806116
     27          1           0       -0.699354    2.608285    2.864946
     28          1           0       -0.671328    3.858645    1.574429
     29          1           0       -1.887244    2.552197    1.520632
     30          6           0        3.105437    2.322605   -0.423112
     31          6           0        3.810563    3.265561    0.522868
     32          6           0        5.083844    3.565058    0.244416
     33          6           0        3.080163    3.827880    1.719020
     34          8           0        3.653673    1.844462   -1.415557
     35          1           0        5.662570    4.237453    0.871721
     36          1           0        5.564565    3.137006   -0.628911
     37          1           0        3.731334    4.493086    2.293216
     38          1           0        2.195632    4.406398    1.421013
     39          1           0        2.737458    3.035089    2.398255
 ---------------------------------------------------------------------
                    Distance matrix (angstroms):
                    1          2          3          4          5
     1  N    0.000000
     2  C    1.449702   0.000000
     3  H    1.545699   1.094016   0.000000
     4  C    1.704573   1.521760   2.119074   0.000000
     5  O    2.625102   2.408378   2.654284   1.212015   0.000000
     6  C    3.013332   1.563630   2.150022   2.528106   3.055391
     7  H    3.500221   2.160622   2.440986   2.696411   2.757519
     8  H    3.471842   2.136370   2.373334   3.432949   3.985323
     9  C    3.891688   2.583672   3.477760   3.136883   3.757714
    10  C    4.673760   3.495459   4.380129   4.244208   5.030278
    11  H    4.882486   3.783927   4.527586   4.811359   5.684703
    12  C    4.660051   3.518456   4.463322   3.456119   3.832907
    13  N    5.672888   4.588553   5.564907   5.011217   5.731553
    14  H    6.502753   5.474695   6.438326   5.951528   6.716800
    15  C    5.695511   4.628690   5.635465   4.654996   5.162588
    16  C    5.009514   4.022388   4.851999   3.470261   3.426152
    17  H    4.621550   3.702671   4.356150   2.992789   2.624432
    18  C    6.808058   5.840568   6.856517   5.610709   5.979116
    19  H    7.665121   6.725978   7.762045   6.571820   7.014432
    20  C    6.218814   5.342730   6.200990   4.641471   4.530091
    21  H    6.750464   5.978523   6.747477   5.087469   4.744185
    22  C    7.014071   6.117780   7.076504   5.582725   5.692928
    23  H    8.000534   7.163248   8.118600   6.538711   6.585043
    24  O    2.125200   2.396551   3.161552   1.349562   2.260706
    25  H    1.008165   2.111650   2.459022   1.615544   2.542824
    26  C    3.378482   3.723574   4.393018   2.361238   2.662619
    27  H    3.933693   4.421197   5.142932   3.238880   3.717495
    28  H    3.510000   4.074038   4.502972   2.623328   2.575407
    29  H    4.071597   4.061125   4.809257   2.691486   2.739716
    30  C    1.367321   2.455575   1.976701   3.009396   3.726124
    31  C    2.438015   3.802954   3.415890   3.946893   4.571465
    32  C    3.636247   4.881276   4.323220   5.201460   5.762605
    33  C    2.864171   4.306572   4.205128   3.942507   4.518083
    34  O    2.268716   2.771624   2.011019   3.747460   4.380487
    35  H    4.550424   5.870323   5.355720   6.044046   6.563290
    36  H    3.951564   4.977262   4.279445   5.563057   6.114689
    37  H    3.943576   5.390607   5.234311   5.011717   5.515765
    38  H    2.853404   4.202335   4.105722   3.506727   3.833851
    39  H    2.859651   4.201714   4.365559   3.829969   4.606177
                    6          7          8          9         10
     6  C    0.000000
     7  H    1.095818   0.000000
     8  H    1.094353   1.763949   0.000000
     9  C    1.500532   2.151342   2.141721   0.000000
    10  C    2.558850   3.378238   2.725934   1.373860   0.000000
    11  H    2.959912   3.887930   2.734314   2.222451   1.081820
    12  C    2.649716   2.866774   3.486114   1.446618   2.255699
    13  N    3.710161   4.368924   4.045394   2.260425   1.382098
    14  H    4.626317   5.323159   4.834926   3.225326   2.129214
    15  C    3.775827   4.165778   4.412542   2.310253   2.251268
    16  C    3.357836   3.159870   4.339622   2.629602   3.650409
    17  H    3.189269   2.717574   4.211654   2.969244   4.215634
    18  C    5.062098   5.311932   5.765341   3.652047   3.623481
    19  H    5.947529   6.280371   6.557699   4.479024   4.162491
    20  C    4.725634   4.531277   5.681351   3.825126   4.594912
    21  H    5.464087   5.112374   6.455878   4.750766   5.628175
    22  C    5.426236   5.437567   6.278627   4.221273   4.585379
    23  H    6.506123   6.480184   7.362395   5.306053   5.613065
    24  O    3.431996   3.828648   4.319156   3.575340   4.419649
    25  H    3.589432   4.035451   4.228540   4.191302   4.979984
    26  C    4.606541   4.788932   5.588728   4.595188   5.487550
    27  H    5.352743   5.680567   6.282630   5.179903   5.864390
    28  H    5.091501   5.124656   6.046024   5.338042   6.341807
    29  H    4.594846   4.640559   5.655101   4.377836   5.330619
    30  C    3.902412   4.376409   4.033791   4.960035   5.604342
    31  C    5.325617   5.768504   5.529156   6.268980   6.878198
    32  C    6.322700   6.756165   6.351480   7.358226   7.891500
    33  C    5.866364   6.279274   6.304399   6.579762   7.232330
    34  O    3.889430   4.348943   3.694715   5.107418   5.662932
    35  H    7.348992   7.772188   7.418740   8.336447   8.858424
    36  H    6.273985   6.702024   6.124129   7.409976   7.892896
    37  H    6.952604   7.355600   7.359242   7.663857   8.280396
    38  H    5.712884   5.957069   6.288138   6.443021   7.268096
    39  H    5.708564   6.253379   6.192165   6.190726   6.709957
                   11         12         13         14         15
    11  H    0.000000
    12  C    3.319466   0.000000
    13  N    2.144559   2.256435   0.000000
    14  H    2.515849   3.230961   1.007906   0.000000
    15  C    3.268658   1.423211   1.380044   2.128874   0.000000
    16  C    4.697342   1.407997   3.577822   4.496074   2.434171
    17  H    5.179679   2.171091   4.427508   5.395726   3.427228
    18  C    4.595442   2.474148   2.521764   2.880086   1.398900
    19  H    5.002556   3.460822   2.859109   2.831666   2.172310
    20  C    5.675837   2.411846   4.124142   4.872574   2.764639
    21  H    6.704682   3.398013   5.209757   5.954637   3.851178
    22  C    5.635386   2.805692   3.718604   4.224957   2.384309
    23  H    6.642902   3.892132   4.641609   5.009893   3.374464
    24  O    5.007540   3.676381   4.944246   5.789983   4.582378
    25  H    5.318260   4.689519   5.783825   6.605464   5.661564
    26  C    6.209211   4.274219   5.750602   6.576050   5.103616
    27  H    6.535618   4.844014   5.995846   6.710162   5.428276
    28  H    7.027701   5.089899   6.716110   7.578680   6.053083
    29  H    6.190336   3.739454   5.418787   6.261962   4.550375
    30  C    5.590002   5.901275   6.724306   7.491880   6.907846
    31  C    6.875940   7.073251   7.893691   8.624794   8.027910
    32  C    7.756223   8.271665   8.980888   9.671320   9.217533
    33  C    7.394888   7.114568   8.045600   8.776773   8.009036
    34  O    5.477383   6.243901   6.919567   7.653963   7.248621
    35  H    8.734489   9.186161   9.895848  10.567464  10.106445
    36  H    7.648418   8.458110   9.079093   9.752435   9.415242
    37  H    8.409475   8.180518   9.071013   9.771074   9.042946
    38  H    7.572255   6.818864   8.031383   8.835942   7.815036
    39  H    6.884867   6.665094   7.406925   8.073622   7.407736
                   16         17         18         19         20
    16  C    0.000000
    17  H    1.086010   0.000000
    18  C    2.848783   3.934720   0.000000
    19  H    3.935949   5.021884   1.087171   0.000000
    20  C    1.390000   2.154193   2.438171   3.428940   0.000000
    21  H    2.145115   2.475465   3.412043   4.314228   1.086718
    22  C    2.439998   3.424130   1.389807   2.162946   1.410182
    23  H    3.415094   4.308957   2.143628   2.486298   2.162979
    24  O    3.753736   3.563514   5.390105   6.250077   4.674484
    25  H    4.895584   4.548077   6.630768   7.476629   5.963215
    26  C    3.929646   3.705400   5.580094   6.436979   4.500138
    27  H    4.639453   4.601044   5.800911   6.526318   5.043582
    28  H    4.596479   4.140790   6.538963   7.437927   5.191405
    29  H    3.134343   2.976968   4.847752   5.746605   3.514404
    30  C    6.314488   5.878805   8.083521   8.908246   7.559197
    31  C    7.379335   6.927140   9.107652   9.905966   8.520115
    32  C    8.628536   8.150951  10.347795  11.127999   9.807045
    33  C    7.258636   6.842250   8.917234   9.698993   8.228849
    34  O    6.775482   6.336574   8.521494   9.332383   8.100014
    35  H    9.492189   9.009574  11.186026  11.950164  10.615738
    36  H    8.901225   8.416831  10.625869  11.404322  10.153542
    37  H    8.295464   7.870593   9.912837  10.668885   9.216791
    38  H    6.758725   6.239984   8.644417   9.493382   7.680490
    39  H    6.905669   6.644974   8.268633   8.976600   7.801032
                   21         22         23         24         25
    21  H    0.000000
    22  C    2.160320   0.000000
    23  H    2.476196   1.086621   0.000000
    24  O    5.153094   5.408895   6.286851   0.000000
    25  H    6.431869   6.742387   7.662342   1.429518   0.000000
    26  C    4.725017   5.292986   5.994032   1.440528   2.523513
    27  H    5.309994   5.606512   6.219724   2.025602   2.987487
    28  H    5.247283   6.136129   6.803869   2.089305   2.663014
    29  H    3.657758   4.372292   5.023716   2.082023   3.364341
    30  C    8.083756   8.351820   9.351214   3.421658   2.077526
    31  C    8.963126   9.311130  10.249219   4.008598   2.595408
    32  C   10.256047  10.598505  11.553312   5.338607   3.919423
    33  C    8.581294   8.999446   9.843281   3.599181   2.441314
    34  O    8.675505   8.879083   9.922051   4.386514   3.173497
    35  H   11.021586  11.403060  12.322397   6.047197   4.670206
    36  H   10.648338  10.943880  11.941587   5.884869   4.465222
    37  H    9.526523   9.975977  10.782911   4.611583   3.525581
    38  H    7.917101   8.565196   9.373645   3.258875   2.288669
    39  H    8.227223   8.431404   9.251689   3.157424   2.247993
                   26         27         28         29         30
    26  C    0.000000
    27  H    1.090185   0.000000
    28  H    1.092155   1.797114   0.000000
    29  H    1.092818   1.794828   1.785540   0.000000
    30  C    4.578541   5.036801   4.540213   5.362622   0.000000
    31  C    4.869045   5.124128   4.641646   5.828329   1.510379
    32  C    6.195849   6.420901   5.914146   7.158958   2.429687
    33  C    4.074678   4.133438   3.754402   5.132432   2.618247
    34  O    5.632002   6.152640   5.630505   6.310615   1.230501
    35  H    6.746191   6.863032   6.384008   7.762787   3.447052
    36  H    6.882191   7.191888   6.652956   7.777660   2.598637
    37  H    4.918499   4.848747   4.505841   5.994360   3.532870
    38  H    3.473064   3.701229   2.922846   4.485294   2.927581
    39  H    3.656898   3.494516   3.602327   4.731942   2.933112
                   31         32         33         34         35
    31  C    0.000000
    32  C    1.337340   0.000000
    33  C    1.510121   2.501653   0.000000
    34  O    2.408657   2.785920   3.753456   0.000000
    35  H    2.120425   1.086531   2.748544   3.872172   0.000000
    36  H    2.102295   1.084906   3.487454   2.437414   1.863460
    37  H    2.155742   2.624518   1.093721   4.558095   2.411569
    38  H    2.171676   3.230170   1.098128   4.090908   3.514246
    39  H    2.172958   3.228840   1.098783   4.099049   3.511732
                   36         37         38         39
    36  H    0.000000
    37  H    3.706549   0.000000
    38  H    4.142855   1.768229   0.000000
    39  H    4.143265   1.767648   1.768917   0.000000
 Stoichiometry    C16H18N2O3
 Framework group  C1[X(C16H18N2O3)]
 Deg. of freedom   111
 Full point group                 C1      NOp   1
 Largest Abelian subgroup         C1      NOp   1
 Largest concise Abelian subgroup C1      NOp   1
                         Standard orientation:                         
 ---------------------------------------------------------------------
 Center     Atomic      Atomic             Coordinates (Angstroms)
 Number     Number       Type             X           Y           Z
 ---------------------------------------------------------------------
      1          7           0       -2.098465   -0.153634    0.053190
      2          6           0       -0.931351   -0.828404    0.586263
      3          1           0       -1.760545   -1.053904    1.263359
      4          6           0       -0.723433    0.678691    0.620719
      5          8           0       -0.614716    1.308841    1.650318
      6          6           0        0.327484   -1.556201    1.161229
      7          1           0        0.504834   -1.157749    2.166514
      8          1           0        0.035801   -2.604953    1.273696
      9          6           0        1.562312   -1.447884    0.315614
     10          6           0        1.966930   -2.354666   -0.633871
     11          1           0        1.511704   -3.292487   -0.923001
     12          6           0        2.548587   -0.389622    0.308708
     13          7           0        3.133835   -1.925380   -1.237394
     14          1           0        3.657160   -2.443302   -1.925699
     15          6           0        3.521291   -0.726613   -0.674051
     16          6           0        2.718697    0.798303    1.045153
     17          1           0        1.995698    1.085115    1.803064
     18          6           0        4.632867    0.080372   -0.938806
     19          1           0        5.364889   -0.196520   -1.693404
     20          6           0        3.822235    1.602386    0.784860
     21          1           0        3.962974    2.518473    1.352251
     22          6           0        4.769480    1.248307   -0.197977
     23          1           0        5.622921    1.896701   -0.376772
     24          8           0       -0.623740    1.225990   -0.608851
     25          1           0       -1.947836    0.716866   -0.432543
     26          6           0       -0.319782    2.633732   -0.640362
     27          1           0       -0.369700    2.919137   -1.691341
     28          1           0       -1.048140    3.193940   -0.050054
     29          1           0        0.683706    2.804386   -0.242694
     30          6           0       -3.340429   -0.721292    0.122885
     31          6           0       -4.463684    0.081703   -0.489277
     32          6           0       -5.689100   -0.451377   -0.437713
     33          6           0       -4.180729    1.423563   -1.121587
     34          8           0       -3.520433   -1.815086    0.657063
     35          1           0       -6.552804    0.061602   -0.851738
     36          1           0       -5.842090   -1.418381    0.029749
     37          1           0       -5.100233    1.870540   -1.510108
     38          1           0       -3.747787    2.130086   -0.400983
     39          1           0       -3.475285    1.339611   -1.959815
 ---------------------------------------------------------------------
 Rotational constants (GHZ):      0.6718462      0.1721555      0.1539940
 Leave Link  202 at Sun Jan 28 12:46:44 2024, MaxMem=    33554432 cpu:         0.0
 (Enter C:\G09W\l301.exe)
 Standard basis: 6-31G(d) (6D, 7F)
 Ernie: Thresh=  0.10000D-02 Tol=  0.10000D-05 Strict=F.
 There are   351 symmetry adapted cartesian basis functions of A   symmetry.
 There are   351 symmetry adapted basis functions of A   symmetry.
   351 basis functions,   660 primitive gaussians,   351 cartesian basis functions
    76 alpha electrons       76 beta electrons
       nuclear repulsion energy      1674.7257568126 Hartrees.
 IExCor=  402 DFT=T Ex+Corr=B3LYP ExCW=0 ScaHFX=  0.200000
 ScaDFX=  0.800000  0.720000  1.000000  0.810000 ScalE2=  1.000000  1.000000
 IRadAn=      0 IRanWt=     -1 IRanGd=            0 ICorTp=0 IEmpDi=  4
 NAtoms=   39 NActive=   39 NUniq=   39 SFac= 1.00D+00 NAtFMM=   60 NAOKFM=F Big=F
 Integral buffers will be    262144 words long.
 Raffenetti 2 integral format.
 Two-electron integral symmetry is turned on.
 Leave Link  301 at Sun Jan 28 12:46:44 2024, MaxMem=    33554432 cpu:         0.0
 (Enter C:\G09W\l302.exe)
 NPDir=0 NMtPBC=     1 NCelOv=     1 NCel=       1 NClECP=     1 NCelD=      1
         NCelK=      1 NCelE2=     1 NClLst=     1 CellRange=     0.0.
 One-electron integrals computed using PRISM.
 NBasis=   351 RedAO= T EigKep=  3.73D-04  NBF=   351
 NBsUse=   351 1.00D-06 EigRej= -1.00D+00 NBFU=   351
 Precomputing XC quadrature grid using
 IXCGrd= 4 IRadAn=           0 IRanWt=          -1 IRanGd=           0 AccXCQ= 0.00D+00.
 Generated NRdTot=       0 NPtTot=           0 NUsed=           0 NTot=          16
 NSgBfM=   346   346   346   346   346 MxSgAt=    39 MxSgA2=    39.
 Leave Link  302 at Sun Jan 28 12:46:45 2024, MaxMem=    33554432 cpu:         1.0
 (Enter C:\G09W\l303.exe)
 DipDrv:  MaxL=1.
 Leave Link  303 at Sun Jan 28 12:46:45 2024, MaxMem=    33554432 cpu:         0.0
 (Enter C:\G09W\l401.exe)
 ExpMin= 1.61D-01 ExpMax= 5.48D+03 ExpMxC= 8.25D+02 IAcc=1 IRadAn=         1 AccDes= 0.00D+00
 Harris functional with IExCor=  402 and IRadAn=       1 diagonalized for initial guess.
 HarFok:  IExCor=  402 AccDes= 0.00D+00 IRadAn=         1 IDoV= 1 UseB2=F ITyADJ=14
 ICtDFT=  3500011 ScaDFX=  1.000000  1.000000  1.000000  1.000000
 FoFCou: FMM=F IPFlag=           0 FMFlag=      100000 FMFlg1=           0
         NFxFlg=           0 DoJE=T BraDBF=F KetDBF=T FulRan=T
         wScrn=  0.000000 ICntrl=     500 IOpCl=  0 I1Cent=   200000004 NGrid=           0
         NMat0=    1 NMatS0=      1 NMatT0=    0 NMatD0=    1 NMtDS0=    0 NMtDT0=    0
 Petite list used in FoFCou.
 Harris En= -955.483988325829    
 JPrj=0 DoOrth=F DoCkMO=F.
 Leave Link  401 at Sun Jan 28 12:46:47 2024, MaxMem=    33554432 cpu:         2.0
 (Enter C:\G09W\l502.exe)
 Closed shell SCF:
 Using DIIS extrapolation, IDIIS=  1040.
 Integral symmetry usage will be decided dynamically.
 IVT=      393055 IEndB=      393055 NGot=    33554432 MDV=    33301570
 LenX=    33301570 LenY=    33177928
 Requested convergence on RMS density matrix=1.00D-08 within 128 cycles.
 Requested convergence on MAX density matrix=1.00D-06.
 Requested convergence on             energy=1.00D-06.
 No special actions if energy rises.
 Fock matrices will be formed incrementally for  20 cycles.
 Integral accuracy reduced to 1.0D-05 until final iterations.

 Cycle   1  Pass 0  IDiag  1:
 FoFJK:  IHMeth= 1 ICntrl=       0 DoSepK=F KAlg= 0 I1Cent=   0 FoldK=F
 IRaf= 740000000 NMat=   1 IRICut=       1 DoRegI=T DoRafI=F ISym2E= 0.
 FoFCou: FMM=F IPFlag=           0 FMFlag=      100000 FMFlg1=           0
         NFxFlg=           0 DoJE=F BraDBF=F KetDBF=F FulRan=T
         wScrn=  0.000000 ICntrl=       0 IOpCl=  0 I1Cent=           0 NGrid=           0
         NMat0=    1 NMatS0=      1 NMatT0=    0 NMatD0=    1 NMtDS0=    0 NMtDT0=    0
 Symmetry not used in FoFCou.
 E= -954.925186459228    
 DIIS: error= 2.26D-02 at cycle   1 NSaved=   1.
 NSaved= 1 IEnMin= 1 EnMin= -954.925186459228     IErMin= 1 ErrMin= 2.26D-02
 ErrMax= 2.26D-02  0.00D+00 EMaxC= 1.00D-01 BMatC= 5.58D-01 BMatP= 5.58D-01
 IDIUse=3 WtCom= 7.74D-01 WtEn= 2.26D-01
 Coeff-Com:  0.100D+01
 Coeff-En:   0.100D+01
 Coeff:      0.100D+01
 Gap=     0.155 Goal=   None    Shift=    0.000
 GapD=    0.155 DampG=1.000 DampE=0.500 DampFc=0.5000 IDamp=-1.
 Damping current iteration by 5.00D-01
 RMSDP=5.53D-03 MaxDP=2.25D-01              OVMax= 2.34D-01

 Cycle   2  Pass 0  IDiag  1:
 RMSU=  2.74D-03    CP:  9.82D-01
 E= -955.074252346851     Delta-E=       -0.149065887623 Rises=F Damp=T
 DIIS: error= 9.33D-03 at cycle   2 NSaved=   2.
 NSaved= 2 IEnMin= 2 EnMin= -955.074252346851     IErMin= 2 ErrMin= 9.33D-03
 ErrMax= 9.33D-03  0.00D+00 EMaxC= 1.00D-01 BMatC= 1.03D-01 BMatP= 5.58D-01
 IDIUse=3 WtCom= 9.07D-01 WtEn= 9.33D-02
 Coeff-Com:  0.221D+00 0.779D+00
 Coeff-En:   0.330D+00 0.670D+00
 Coeff:      0.231D+00 0.769D+00
 Gap=     0.179 Goal=   None    Shift=    0.000
 RMSDP=2.00D-03 MaxDP=1.13D-01 DE=-1.49D-01 OVMax= 2.07D-01

 Cycle   3  Pass 0  IDiag  1:
 RMSU=  1.79D-03    CP:  9.64D-01  6.98D-01
 E= -955.349413782937     Delta-E=       -0.275161436086 Rises=F Damp=F
 DIIS: error= 1.14D-02 at cycle   3 NSaved=   3.
 NSaved= 3 IEnMin= 3 EnMin= -955.349413782937     IErMin= 2 ErrMin= 9.33D-03
 ErrMax= 1.14D-02  0.00D+00 EMaxC= 1.00D-01 BMatC= 1.24D-01 BMatP= 1.03D-01
 IDIUse=2 WtCom= 0.00D+00 WtEn= 1.00D+00
 Coeff-En:   0.000D+00 0.000D+00 0.100D+01
 Coeff:      0.000D+00 0.000D+00 0.100D+01
 Gap=     0.167 Goal=   None    Shift=    0.000
 RMSDP=3.37D-03 MaxDP=2.06D-01 DE=-2.75D-01 OVMax= 2.87D-01

 Cycle   4  Pass 0  IDiag  1:
 RMSU=  1.80D-03    CP:  9.75D-01  1.25D+00 -3.46D-01
 E= -954.794429975387     Delta-E=        0.554983807550 Rises=F Damp=F
 DIIS: error= 3.09D-02 at cycle   4 NSaved=   4.
 NSaved= 4 IEnMin= 3 EnMin= -955.349413782937     IErMin= 2 ErrMin= 9.33D-03
 ErrMax= 3.09D-02  0.00D+00 EMaxC= 1.00D-01 BMatC= 8.27D-01 BMatP= 1.03D-01
 IDIUse=2 WtCom= 0.00D+00 WtEn= 1.00D+00
 Coeff-En:   0.000D+00 0.000D+00 0.806D+00 0.194D+00
 Coeff:      0.000D+00 0.000D+00 0.806D+00 0.194D+00
 Gap=     0.183 Goal=   None    Shift=    0.000
 RMSDP=1.87D-03 MaxDP=1.27D-01 DE= 5.55D-01 OVMax= 1.41D-01

 Cycle   5  Pass 0  IDiag  1:
 RMSU=  3.70D-04    CP:  9.71D-01  8.67D-01  3.27D-01  5.00D-01
 E= -955.406781733751     Delta-E=       -0.612351758363 Rises=F Damp=F
 DIIS: error= 7.25D-03 at cycle   5 NSaved=   5.
 NSaved= 5 IEnMin= 5 EnMin= -955.406781733751     IErMin= 5 ErrMin= 7.25D-03
 ErrMax= 7.25D-03  0.00D+00 EMaxC= 1.00D-01 BMatC= 5.94D-02 BMatP= 1.03D-01
 IDIUse=3 WtCom= 9.28D-01 WtEn= 7.25D-02
 Coeff-Com:  0.318D-03 0.363D-01 0.358D+00-0.487D-01 0.654D+00
 Coeff-En:   0.000D+00 0.000D+00 0.359D+00 0.000D+00 0.641D+00
 Coeff:      0.295D-03 0.336D-01 0.358D+00-0.452D-01 0.653D+00
 Gap=     0.144 Goal=   None    Shift=    0.000
 RMSDP=6.73D-04 MaxDP=3.58D-02 DE=-6.12D-01 OVMax= 4.83D-02

 Cycle   6  Pass 0  IDiag  1:
 RMSU=  1.49D-04    CP:  9.69D-01  7.83D-01  5.98D-01  3.08D-01  6.12D-01
 E= -955.455437233592     Delta-E=       -0.048655499842 Rises=F Damp=F
 DIIS: error= 1.18D-03 at cycle   6 NSaved=   6.
 NSaved= 6 IEnMin= 6 EnMin= -955.455437233592     IErMin= 6 ErrMin= 1.18D-03
 ErrMax= 1.18D-03  0.00D+00 EMaxC= 1.00D-01 BMatC= 1.06D-03 BMatP= 5.94D-02
 IDIUse=3 WtCom= 9.88D-01 WtEn= 1.18D-02
 Coeff-Com: -0.716D-02 0.274D-01 0.175D+00-0.624D-01 0.446D+00 0.421D+00
 Coeff-En:   0.000D+00 0.000D+00 0.000D+00 0.000D+00 0.000D+00 0.100D+01
 Coeff:     -0.708D-02 0.271D-01 0.173D+00-0.617D-01 0.441D+00 0.428D+00
 Gap=     0.141 Goal=   None    Shift=    0.000
 RMSDP=9.94D-05 MaxDP=4.63D-03 DE=-4.87D-02 OVMax= 8.75D-03

 Cycle   7  Pass 0  IDiag  1:
 RMSU=  3.19D-05    CP:  9.69D-01  7.90D-01  5.93D-01  2.98D-01  7.38D-01
                    CP:  4.81D-01
 E= -955.456381814189     Delta-E=       -0.000944580597 Rises=F Damp=F
 DIIS: error= 1.44D-04 at cycle   7 NSaved=   7.
 NSaved= 7 IEnMin= 7 EnMin= -955.456381814189     IErMin= 7 ErrMin= 1.44D-04
 ErrMax= 1.44D-04  0.00D+00 EMaxC= 1.00D-01 BMatC= 1.76D-05 BMatP= 1.06D-03
 IDIUse=3 WtCom= 9.99D-01 WtEn= 1.44D-03
 Coeff-Com: -0.962D-03 0.182D-02 0.365D-01-0.127D-01 0.880D-01 0.129D+00
 Coeff-Com:  0.759D+00
 Coeff-En:   0.000D+00 0.000D+00 0.000D+00 0.000D+00 0.000D+00 0.000D+00
 Coeff-En:   0.100D+01
 Coeff:     -0.961D-03 0.182D-02 0.365D-01-0.126D-01 0.879D-01 0.128D+00
 Coeff:      0.759D+00
 Gap=     0.142 Goal=   None    Shift=    0.000
 RMSDP=1.64D-05 MaxDP=5.61D-04 DE=-9.45D-04 OVMax= 1.50D-03

 Cycle   8  Pass 0  IDiag  1:
 RMSU=  1.22D-05    CP:  9.69D-01  7.89D-01  5.96D-01  2.99D-01  7.32D-01
                    CP:  5.13D-01  7.95D-01
 E= -955.456393291718     Delta-E=       -0.000011477528 Rises=F Damp=F
 DIIS: error= 8.41D-05 at cycle   8 NSaved=   8.
 NSaved= 8 IEnMin= 8 EnMin= -955.456393291718     IErMin= 8 ErrMin= 8.41D-05
 ErrMax= 8.41D-05  0.00D+00 EMaxC= 1.00D-01 BMatC= 4.95D-06 BMatP= 1.76D-05
 IDIUse=1 WtCom= 1.00D+00 WtEn= 0.00D+00
 Coeff-Com: -0.169D-04-0.818D-03 0.108D-01-0.364D-02 0.231D-01 0.513D-01
 Coeff-Com:  0.494D+00 0.425D+00
 Coeff:     -0.169D-04-0.818D-03 0.108D-01-0.364D-02 0.231D-01 0.513D-01
 Coeff:      0.494D+00 0.425D+00
 Gap=     0.141 Goal=   None    Shift=    0.000
 RMSDP=7.59D-06 MaxDP=2.44D-04 DE=-1.15D-05 OVMax= 8.46D-04

 Initial convergence to 1.0D-05 achieved.  Increase integral accuracy.
 Cycle   9  Pass 1  IDiag  1:
 E= -955.456402502071     Delta-E=       -0.000009210353 Rises=F Damp=F
 DIIS: error= 7.24D-05 at cycle   1 NSaved=   1.
 NSaved= 1 IEnMin= 1 EnMin= -955.456402502071     IErMin= 1 ErrMin= 7.24D-05
 ErrMax= 7.24D-05  0.00D+00 EMaxC= 1.00D-01 BMatC= 1.01D-06 BMatP= 1.01D-06
 IDIUse=1 WtCom= 1.00D+00 WtEn= 0.00D+00
 Coeff-Com:  0.100D+01
 Coeff:      0.100D+01
 Gap=     0.141 Goal=   None    Shift=    0.000
 RMSDP=7.59D-06 MaxDP=2.44D-04 DE=-9.21D-06 OVMax= 3.10D-04

 Cycle  10  Pass 1  IDiag  1:
 RMSU=  2.80D-05    CP:  1.00D+00
 E= -955.456403237788     Delta-E=       -0.000000735718 Rises=F Damp=F
 DIIS: error= 2.41D-05 at cycle   2 NSaved=   2.
 NSaved= 2 IEnMin= 2 EnMin= -955.456403237788     IErMin= 2 ErrMin= 2.41D-05
 ErrMax= 2.41D-05  0.00D+00 EMaxC= 1.00D-01 BMatC= 3.89D-07 BMatP= 1.01D-06
 IDIUse=1 WtCom= 1.00D+00 WtEn= 0.00D+00
 Coeff-Com:  0.322D+00 0.678D+00
 Coeff:      0.322D+00 0.678D+00
 Gap=     0.141 Goal=   None    Shift=    0.000
 RMSDP=3.94D-06 MaxDP=1.40D-04 DE=-7.36D-07 OVMax= 4.13D-04

 Cycle  11  Pass 1  IDiag  1:
 RMSU=  3.93D-06    CP:  1.00D+00  9.97D-01
 E= -955.456403161262     Delta-E=        0.000000076526 Rises=F Damp=F
 DIIS: error= 2.72D-05 at cycle   3 NSaved=   3.
 NSaved= 3 IEnMin= 2 EnMin= -955.456403237788     IErMin= 2 ErrMin= 2.41D-05
 ErrMax= 2.72D-05  0.00D+00 EMaxC= 1.00D-01 BMatC= 4.70D-07 BMatP= 3.89D-07
 IDIUse=1 WtCom= 1.00D+00 WtEn= 0.00D+00
 Coeff-Com: -0.466D-02 0.525D+00 0.479D+00
 Coeff:     -0.466D-02 0.525D+00 0.479D+00
 Gap=     0.141 Goal=   None    Shift=    0.000
 RMSDP=2.15D-06 MaxDP=8.01D-05 DE= 7.65D-08 OVMax= 2.05D-04

 Cycle  12  Pass 1  IDiag  1:
 RMSU=  5.88D-07    CP:  1.00D+00  1.01D+00  4.82D-01
 E= -955.456403607812     Delta-E=       -0.000000446550 Rises=F Damp=F
 DIIS: error= 2.75D-06 at cycle   4 NSaved=   4.
 NSaved= 4 IEnMin= 4 EnMin= -955.456403607812     IErMin= 4 ErrMin= 2.75D-06
 ErrMax= 2.75D-06  0.00D+00 EMaxC= 1.00D-01 BMatC= 1.06D-08 BMatP= 3.89D-07
 IDIUse=1 WtCom= 1.00D+00 WtEn= 0.00D+00
 Coeff-Com: -0.921D-02 0.307D+00 0.295D+00 0.407D+00
 Coeff:     -0.921D-02 0.307D+00 0.295D+00 0.407D+00
 Gap=     0.141 Goal=   None    Shift=    0.000
 RMSDP=3.26D-07 MaxDP=1.59D-05 DE=-4.47D-07 OVMax= 2.43D-05

 Cycle  13  Pass 1  IDiag  1:
 RMSU=  2.01D-07    CP:  1.00D+00  1.01D+00  4.91D-01  5.69D-01
 E= -955.456403616838     Delta-E=       -0.000000009026 Rises=F Damp=F
 DIIS: error= 7.27D-07 at cycle   5 NSaved=   5.
 NSaved= 5 IEnMin= 5 EnMin= -955.456403616838     IErMin= 5 ErrMin= 7.27D-07
 ErrMax= 7.27D-07  0.00D+00 EMaxC= 1.00D-01 BMatC= 6.15D-10 BMatP= 1.06D-08
 IDIUse=1 WtCom= 1.00D+00 WtEn= 0.00D+00
 Coeff-Com: -0.500D-02 0.127D+00 0.125D+00 0.236D+00 0.517D+00
 Coeff:     -0.500D-02 0.127D+00 0.125D+00 0.236D+00 0.517D+00
 Gap=     0.141 Goal=   None    Shift=    0.000
 RMSDP=9.41D-08 MaxDP=5.20D-06 DE=-9.03D-09 OVMax= 7.77D-06

 Cycle  14  Pass 1  IDiag  1:
 RMSU=  6.99D-08    CP:  1.00D+00  1.01D+00  4.96D-01  6.03D-01  7.16D-01
 E= -955.456403617277     Delta-E=       -0.000000000438 Rises=F Damp=F
 DIIS: error= 3.07D-07 at cycle   6 NSaved=   6.
 NSaved= 6 IEnMin= 6 EnMin= -955.456403617277     IErMin= 6 ErrMin= 3.07D-07
 ErrMax= 3.07D-07  0.00D+00 EMaxC= 1.00D-01 BMatC= 9.61D-11 BMatP= 6.15D-10
 IDIUse=1 WtCom= 1.00D+00 WtEn= 0.00D+00
 Coeff-Com: -0.176D-02 0.364D-01 0.368D-01 0.897D-01 0.319D+00 0.520D+00
 Coeff:     -0.176D-02 0.364D-01 0.368D-01 0.897D-01 0.319D+00 0.520D+00
 Gap=     0.141 Goal=   None    Shift=    0.000
 RMSDP=3.65D-08 MaxDP=1.88D-06 DE=-4.38D-10 OVMax= 3.38D-06

 Cycle  15  Pass 1  IDiag  1:
 RMSU=  2.50D-08    CP:  1.00D+00  1.01D+00  4.94D-01  6.02D-01  7.63D-01
                    CP:  6.56D-01
 E= -955.456403617371     Delta-E=       -0.000000000094 Rises=F Damp=F
 DIIS: error= 1.21D-07 at cycle   7 NSaved=   7.
 NSaved= 7 IEnMin= 7 EnMin= -955.456403617371     IErMin= 7 ErrMin= 1.21D-07
 ErrMax= 1.21D-07  0.00D+00 EMaxC= 1.00D-01 BMatC= 1.30D-11 BMatP= 9.61D-11
 IDIUse=1 WtCom= 1.00D+00 WtEn= 0.00D+00
 Coeff-Com: -0.439D-03 0.619D-02 0.648D-02 0.244D-01 0.121D+00 0.317D+00
 Coeff-Com:  0.526D+00
 Coeff:     -0.439D-03 0.619D-02 0.648D-02 0.244D-01 0.121D+00 0.317D+00
 Coeff:      0.526D+00
 Gap=     0.141 Goal=   None    Shift=    0.000
 RMSDP=1.41D-08 MaxDP=6.85D-07 DE=-9.41D-11 OVMax= 1.14D-06

 Cycle  16  Pass 1  IDiag  1:
 RMSU=  9.30D-09    CP:  1.00D+00  1.01D+00  4.95D-01  6.05D-01  7.73D-01
                    CP:  7.29D-01  6.53D-01
 E= -955.456403617325     Delta-E=        0.000000000046 Rises=F Damp=F
 DIIS: error= 5.10D-08 at cycle   8 NSaved=   8.
 NSaved= 8 IEnMin= 7 EnMin= -955.456403617371     IErMin= 8 ErrMin= 5.10D-08
 ErrMax= 5.10D-08  0.00D+00 EMaxC= 1.00D-01 BMatC= 1.92D-12 BMatP= 1.30D-11
 IDIUse=1 WtCom= 1.00D+00 WtEn= 0.00D+00
 Coeff-Com:  0.156D-04-0.239D-02-0.228D-02 0.336D-03 0.205D-01 0.115D+00
 Coeff-Com:  0.326D+00 0.542D+00
 Coeff:      0.156D-04-0.239D-02-0.228D-02 0.336D-03 0.205D-01 0.115D+00
 Coeff:      0.326D+00 0.542D+00
 Gap=     0.141 Goal=   None    Shift=    0.000
 RMSDP=4.83D-09 MaxDP=1.52D-07 DE= 4.59D-11 OVMax= 4.53D-07

 SCF Done:  E(RB3LYP) =  -955.456403617     A.U. after   16 cycles
            NFock= 16  Conv=0.48D-08     -V/T= 2.0083
 KE= 9.475522916276D+02 PE=-5.573591664289D+03 EE= 1.995857212231D+03
 Leave Link  502 at Sun Jan 28 12:48:17 2024, MaxMem=    33554432 cpu:        90.0
 (Enter C:\G09W\l601.exe)
 Copying SCF densities to generalized density rwf, IOpCl= 0 IROHF=0.

 **********************************************************************

            Population analysis using the SCF density.

 **********************************************************************

 Orbital symmetries:
       Occupied  (A) (A) (A) (A) (A) (A) (A) (A) (A) (A) (A) (A)
                 (A) (A) (A) (A) (A) (A) (A) (A) (A) (A) (A) (A)
                 (A) (A) (A) (A) (A) (A) (A) (A) (A) (A) (A) (A)
                 (A) (A) (A) (A) (A) (A) (A) (A) (A) (A) (A) (A)
                 (A) (A) (A) (A) (A) (A) (A) (A) (A) (A) (A) (A)
                 (A) (A) (A) (A) (A) (A) (A) (A) (A) (A) (A) (A)
                 (A) (A) (A) (A)
       Virtual   (A) (A) (A) (A) (A) (A) (A) (A) (A) (A) (A) (A)
                 (A) (A) (A) (A) (A) (A) (A) (A) (A) (A) (A) (A)
                 (A) (A) (A) (A) (A) (A) (A) (A) (A) (A) (A) (A)
                 (A) (A) (A) (A) (A) (A) (A) (A) (A) (A) (A) (A)
                 (A) (A) (A) (A) (A) (A) (A) (A) (A) (A) (A) (A)
                 (A) (A) (A) (A) (A) (A) (A) (A) (A) (A) (A) (A)
                 (A) (A) (A) (A) (A) (A) (A) (A) (A) (A) (A) (A)
                 (A) (A) (A) (A) (A) (A) (A) (A) (A) (A) (A) (A)
                 (A) (A) (A) (A) (A) (A) (A) (A) (A) (A) (A) (A)
                 (A) (A) (A) (A) (A) (A) (A) (A) (A) (A) (A) (A)
                 (A) (A) (A) (A) (A) (A) (A) (A) (A) (A) (A) (A)
                 (A) (A) (A) (A) (A) (A) (A) (A) (A) (A) (A) (A)
                 (A) (A) (A) (A) (A) (A) (A) (A) (A) (A) (A) (A)
                 (A) (A) (A) (A) (A) (A) (A) (A) (A) (A) (A) (A)
                 (A) (A) (A) (A) (A) (A) (A) (A) (A) (A) (A) (A)
                 (A) (A) (A) (A) (A) (A) (A) (A) (A) (A) (A) (A)
                 (A) (A) (A) (A) (A) (A) (A) (A) (A) (A) (A) (A)
                 (A) (A) (A) (A) (A) (A) (A) (A) (A) (A) (A) (A)
                 (A) (A) (A) (A) (A) (A) (A) (A) (A) (A) (A) (A)
                 (A) (A) (A) (A) (A) (A) (A) (A) (A) (A) (A) (A)
                 (A) (A) (A) (A) (A) (A) (A) (A) (A) (A) (A) (A)
                 (A) (A) (A) (A) (A) (A) (A) (A) (A) (A) (A) (A)
                 (A) (A) (A) (A) (A) (A) (A) (A) (A) (A) (A)
 The electronic state is 1-A.
 Alpha  occ. eigenvalues --  -19.19731 -19.11812 -19.11666 -14.38059 -14.37697
 Alpha  occ. eigenvalues --  -10.31632 -10.28262 -10.24755 -10.21989 -10.21965
 Alpha  occ. eigenvalues --  -10.21849 -10.21703 -10.20763 -10.19910 -10.18898
 Alpha  occ. eigenvalues --  -10.18740 -10.18209 -10.18197 -10.18125 -10.17948
 Alpha  occ. eigenvalues --  -10.17684  -1.13870  -1.04182  -1.01170  -0.97791
 Alpha  occ. eigenvalues --   -0.96667  -0.83465  -0.81707  -0.80214  -0.76312
 Alpha  occ. eigenvalues --   -0.74812  -0.73128  -0.71769  -0.69974  -0.68835
 Alpha  occ. eigenvalues --   -0.63998  -0.61972  -0.59459  -0.59044  -0.56526
 Alpha  occ. eigenvalues --   -0.55518  -0.53626  -0.51079  -0.49251  -0.48466
 Alpha  occ. eigenvalues --   -0.47729  -0.47060  -0.46612  -0.45969  -0.45117
 Alpha  occ. eigenvalues --   -0.44072  -0.43434  -0.42749  -0.42465  -0.42212
 Alpha  occ. eigenvalues --   -0.41881  -0.41468  -0.40368  -0.39953  -0.39183
 Alpha  occ. eigenvalues --   -0.37720  -0.37505  -0.36441  -0.35642  -0.34809
 Alpha  occ. eigenvalues --   -0.33173  -0.33050  -0.31888  -0.30952  -0.27464
 Alpha  occ. eigenvalues --   -0.26621  -0.26255  -0.26061  -0.21998  -0.20970
 Alpha  occ. eigenvalues --   -0.18668
 Alpha virt. eigenvalues --   -0.04520  -0.01038  -0.00168   0.02860   0.04865
 Alpha virt. eigenvalues --    0.06876   0.07733   0.08059   0.09693   0.10643
 Alpha virt. eigenvalues --    0.11937   0.12206   0.12975   0.13823   0.14098
 Alpha virt. eigenvalues --    0.14663   0.15173   0.15978   0.16705   0.16796
 Alpha virt. eigenvalues --    0.17995   0.18229   0.18443   0.19628   0.19973
 Alpha virt. eigenvalues --    0.20675   0.21502   0.22842   0.24239   0.24830
 Alpha virt. eigenvalues --    0.25666   0.27070   0.28317   0.30802   0.31817
 Alpha virt. eigenvalues --    0.32342   0.32610   0.34273   0.34562   0.35283
 Alpha virt. eigenvalues --    0.36218   0.38943   0.39934   0.42965   0.43781
 Alpha virt. eigenvalues --    0.47009   0.49633   0.50420   0.50755   0.51114
 Alpha virt. eigenvalues --    0.51678   0.52595   0.53666   0.54272   0.54714
 Alpha virt. eigenvalues --    0.56002   0.56676   0.57244   0.57643   0.58218
 Alpha virt. eigenvalues --    0.58946   0.60017   0.60443   0.60804   0.61613
 Alpha virt. eigenvalues --    0.62056   0.62479   0.62783   0.63057   0.63321
 Alpha virt. eigenvalues --    0.64926   0.65521   0.66561   0.66930   0.68885
 Alpha virt. eigenvalues --    0.69527   0.70170   0.70443   0.71881   0.75094
 Alpha virt. eigenvalues --    0.75307   0.75764   0.77573   0.78015   0.79823
 Alpha virt. eigenvalues --    0.80331   0.81005   0.82232   0.82356   0.82866
 Alpha virt. eigenvalues --    0.83610   0.84156   0.84522   0.85288   0.85557
 Alpha virt. eigenvalues --    0.86787   0.87404   0.89176   0.89348   0.89863
 Alpha virt. eigenvalues --    0.90725   0.91037   0.91979   0.92822   0.93328
 Alpha virt. eigenvalues --    0.94287   0.94858   0.95714   0.96259   0.97858
 Alpha virt. eigenvalues --    0.98843   0.99202   1.00531   1.01496   1.03494
 Alpha virt. eigenvalues --    1.03892   1.04445   1.08068   1.08791   1.10668
 Alpha virt. eigenvalues --    1.12333   1.12414   1.13894   1.14664   1.15501
 Alpha virt. eigenvalues --    1.18120   1.18366   1.20078   1.21895   1.23680
 Alpha virt. eigenvalues --    1.24394   1.25269   1.28047   1.30582   1.32742
 Alpha virt. eigenvalues --    1.33089   1.33965   1.35843   1.37523   1.37968
 Alpha virt. eigenvalues --    1.39179   1.39907   1.41631   1.42212   1.44207
 Alpha virt. eigenvalues --    1.44963   1.45556   1.46580   1.47222   1.50500
 Alpha virt. eigenvalues --    1.50713   1.51065   1.53124   1.54689   1.57707
 Alpha virt. eigenvalues --    1.61031   1.62297   1.62871   1.65811   1.66616
 Alpha virt. eigenvalues --    1.68360   1.71262   1.72618   1.76819   1.77483
 Alpha virt. eigenvalues --    1.78420   1.79438   1.80924   1.81467   1.82062
 Alpha virt. eigenvalues --    1.84004   1.85444   1.86226   1.86703   1.87746
 Alpha virt. eigenvalues --    1.88935   1.91309   1.91956   1.92924   1.94493
 Alpha virt. eigenvalues --    1.96526   1.97861   1.98416   1.99205   2.00943
 Alpha virt. eigenvalues --    2.01374   2.02094   2.02495   2.02979   2.04333
 Alpha virt. eigenvalues --    2.07058   2.07578   2.08565   2.10509   2.12170
 Alpha virt. eigenvalues --    2.14789   2.15703   2.15875   2.17017   2.18476
 Alpha virt. eigenvalues --    2.19276   2.21085   2.23700   2.24477   2.25287
 Alpha virt. eigenvalues --    2.26484   2.27787   2.28471   2.29732   2.30545
 Alpha virt. eigenvalues --    2.32054   2.33169   2.35653   2.36799   2.37866
 Alpha virt. eigenvalues --    2.38844   2.39392   2.39911   2.42951   2.44704
 Alpha virt. eigenvalues --    2.47497   2.49918   2.50261   2.50920   2.53525
 Alpha virt. eigenvalues --    2.57146   2.58030   2.58773   2.60479   2.63289
 Alpha virt. eigenvalues --    2.65265   2.65700   2.67984   2.68789   2.71926
 Alpha virt. eigenvalues --    2.74402   2.75378   2.78288   2.82070   2.84188
 Alpha virt. eigenvalues --    2.86348   2.90945   2.91937   2.92629   2.96375
 Alpha virt. eigenvalues --    2.99700   3.02525   3.05360   3.12811   3.13844
 Alpha virt. eigenvalues --    3.20391   3.22350   3.24611   3.44303   3.99784
 Alpha virt. eigenvalues --    4.03878   4.06091   4.09961   4.12774   4.15225
 Alpha virt. eigenvalues --    4.16331   4.17850   4.19699   4.22721   4.26284
 Alpha virt. eigenvalues --    4.32435   4.34099   4.39928   4.41535   4.46051
 Alpha virt. eigenvalues --    4.49976   4.58760   4.64842   4.71584   4.80829
          Condensed to atoms (all electrons):
               1          2          3          4          5          6
     1  N    7.887841   0.056436  -0.163244  -0.110635  -0.019426  -0.006725
     2  C    0.056436   5.229992   0.367768   0.296882  -0.085566   0.304367
     3  H   -0.163244   0.367768   0.647061  -0.020491  -0.001242  -0.047794
     4  C   -0.110635   0.296882  -0.020491   4.706025   0.523516  -0.040228
     5  O   -0.019426  -0.085566  -0.001242   0.523516   8.113301   0.004016
     6  C   -0.006725   0.304367  -0.047794  -0.040228   0.004016   5.242236
     7  H    0.003941  -0.046226  -0.007586  -0.010088   0.009312   0.373286
     8  H   -0.000846  -0.038761   0.000159   0.005839  -0.000025   0.352863
     9  C   -0.001734  -0.054292   0.006516  -0.005088  -0.001578   0.343559
    10  C    0.000026  -0.003630  -0.000006  -0.000852  -0.000014  -0.085356
    11  H   -0.000002   0.000239  -0.000009   0.000019   0.000000  -0.002760
    12  C    0.000001  -0.003921   0.000040   0.003096  -0.000558  -0.058382
    13  N    0.000000   0.000047   0.000001   0.000008   0.000000   0.005181
    14  H    0.000000   0.000001   0.000000   0.000000   0.000000  -0.000096
    15  C    0.000001   0.000045   0.000003  -0.000025   0.000002   0.010381
    16  C    0.000015  -0.000167  -0.000024   0.002265  -0.004529  -0.013218
    17  H    0.000091  -0.000421  -0.000014   0.000914   0.012133   0.002658
    18  C    0.000000   0.000001   0.000000  -0.000004   0.000000  -0.000199
    19  H    0.000000   0.000000   0.000000   0.000000   0.000000   0.000002
    20  C    0.000000  -0.000018   0.000000  -0.000008   0.000075   0.000064
    21  H    0.000000   0.000000   0.000000   0.000001  -0.000004   0.000000
    22  C    0.000000  -0.000001   0.000000  -0.000003   0.000001   0.000004
    23  H    0.000000   0.000000   0.000000   0.000000   0.000000   0.000000
    24  O   -0.160279  -0.057344   0.001703   0.155311  -0.077049  -0.002201
    25  H    0.221779  -0.018768   0.016796  -0.066231  -0.000514  -0.000343
    26  C    0.004066   0.005407  -0.000030  -0.015269   0.007187  -0.000204
    27  H   -0.000047  -0.000063   0.000005   0.006036   0.000867  -0.000004
    28  H    0.001023   0.000167   0.000047  -0.002703   0.006495  -0.000013
    29  H   -0.000460   0.000078  -0.000016  -0.006340   0.003149   0.000018
    30  C    0.251669  -0.053684  -0.036461   0.023284   0.000460   0.000477
    31  C   -0.095649   0.003171   0.001016   0.000636  -0.000012  -0.000013
    32  C    0.007144  -0.000161   0.000044  -0.000029   0.000001   0.000000
    33  C   -0.006150   0.000634  -0.000222  -0.000725  -0.000045   0.000002
    34  O   -0.108443  -0.003799   0.041055   0.002464   0.000008  -0.000997
    35  H   -0.000104   0.000003  -0.000001   0.000000   0.000000   0.000000
    36  H    0.000637   0.000009  -0.000041  -0.000004   0.000000   0.000000
    37  H    0.000275  -0.000003   0.000007   0.000008   0.000000   0.000000
    38  H    0.000123  -0.000167  -0.000058   0.000824   0.000031   0.000002
    39  H   -0.000360   0.000024   0.000009  -0.000151   0.000020  -0.000003
               7          8          9         10         11         12
     1  N    0.003941  -0.000846  -0.001734   0.000026  -0.000002   0.000001
     2  C   -0.046226  -0.038761  -0.054292  -0.003630   0.000239  -0.003921
     3  H   -0.007586   0.000159   0.006516  -0.000006  -0.000009   0.000040
     4  C   -0.010088   0.005839  -0.005088  -0.000852   0.000019   0.003096
     5  O    0.009312  -0.000025  -0.001578  -0.000014   0.000000  -0.000558
     6  C    0.373286   0.352863   0.343559  -0.085356  -0.002760  -0.058382
     7  H    0.540186  -0.037228  -0.031405   0.004130  -0.000033  -0.004260
     8  H   -0.037228   0.572679  -0.024035  -0.007614   0.003071   0.003737
     9  C   -0.031405  -0.024035   4.962929   0.497289  -0.029482   0.400540
    10  C    0.004130  -0.007614   0.497289   5.039026   0.363791   0.015334
    11  H   -0.000033   0.003071  -0.029482   0.363791   0.556002   0.003591
    12  C   -0.004260   0.003737   0.400540   0.015334   0.003591   4.799461
    13  N   -0.000088   0.000042  -0.052841   0.317092  -0.049406  -0.054002
    14  H    0.000004  -0.000006   0.004171  -0.031121  -0.002009   0.006998
    15  C   -0.000256  -0.000055   0.010168  -0.136231   0.004808   0.448850
    16  C    0.003508  -0.000052  -0.108785   0.016183  -0.000149   0.484990
    17  H    0.001890  -0.000027  -0.007689  -0.000158  -0.000001  -0.036293
    18  C   -0.000005   0.000003   0.012858   0.005024  -0.000119  -0.049117
    19  H    0.000000   0.000000  -0.000229  -0.000035   0.000001   0.004451
    20  C   -0.000001   0.000001   0.007711  -0.000416   0.000004  -0.004886
    21  H    0.000001   0.000000  -0.000181   0.000005   0.000000   0.002409
    22  C    0.000002   0.000000  -0.000091  -0.000040   0.000002  -0.036765
    23  H    0.000000   0.000000   0.000010   0.000002   0.000000   0.000969
    24  O    0.000560  -0.000094   0.002607   0.000102   0.000000  -0.000413
    25  H   -0.000185  -0.000043   0.000324  -0.000008   0.000000   0.000038
    26  C   -0.000053   0.000006   0.000035   0.000001   0.000000   0.000074
    27  H   -0.000001   0.000000   0.000002   0.000000   0.000000  -0.000005
    28  H   -0.000002   0.000000   0.000007   0.000000   0.000000   0.000011
    29  H   -0.000013   0.000000  -0.000159  -0.000004   0.000000   0.000128
    30  C    0.000159   0.000154  -0.000127  -0.000005  -0.000001   0.000000
    31  C    0.000005  -0.000003   0.000000   0.000000   0.000000   0.000000
    32  C    0.000000   0.000000   0.000000   0.000000   0.000000   0.000000
    33  C    0.000000   0.000000   0.000000   0.000000   0.000000   0.000000
    34  O    0.000008   0.000595  -0.000005  -0.000001   0.000000   0.000000
    35  H    0.000000   0.000000   0.000000   0.000000   0.000000   0.000000
    36  H    0.000000   0.000000   0.000000   0.000000   0.000000   0.000000
    37  H    0.000000   0.000000   0.000000   0.000000   0.000000   0.000000
    38  H    0.000000   0.000000   0.000000   0.000000   0.000000   0.000000
    39  H    0.000000   0.000000   0.000000   0.000000   0.000000   0.000000
              13         14         15         16         17         18
     1  N    0.000000   0.000000   0.000001   0.000015   0.000091   0.000000
     2  C    0.000047   0.000001   0.000045  -0.000167  -0.000421   0.000001
     3  H    0.000001   0.000000   0.000003  -0.000024  -0.000014   0.000000
     4  C    0.000008   0.000000  -0.000025   0.002265   0.000914  -0.000004
     5  O    0.000000   0.000000   0.000002  -0.004529   0.012133   0.000000
     6  C    0.005181  -0.000096   0.010381  -0.013218   0.002658  -0.000199
     7  H   -0.000088   0.000004  -0.000256   0.003508   0.001890  -0.000005
     8  H    0.000042  -0.000006  -0.000055  -0.000052  -0.000027   0.000003
     9  C   -0.052841   0.004171   0.010168  -0.108785  -0.007689   0.012858
    10  C    0.317092  -0.031121  -0.136231   0.016183  -0.000158   0.005024
    11  H   -0.049406  -0.002009   0.004808  -0.000149  -0.000001  -0.000119
    12  C   -0.054002   0.006998   0.448850   0.484990  -0.036293  -0.049117
    13  N    7.012009   0.321157   0.272364   0.011731  -0.000096  -0.094265
    14  H    0.321157   0.401476  -0.026767  -0.000121   0.000004  -0.004301
    15  C    0.272364  -0.026767   4.761685  -0.063154   0.005091   0.479761
    16  C    0.011731  -0.000121  -0.063154   5.162335   0.344652  -0.059353
    17  H   -0.000096   0.000004   0.005091   0.344652   0.560989   0.000346
    18  C   -0.094265  -0.004301   0.479761  -0.059353   0.000346   5.057653
    19  H   -0.006136   0.002857  -0.040190   0.000451   0.000016   0.347984
    20  C   -0.000172  -0.000002  -0.042777   0.503564  -0.041971  -0.027518
    21  H    0.000003   0.000000   0.001016  -0.038596  -0.004833   0.004690
    22  C    0.005351  -0.000087  -0.000487  -0.023536   0.004309   0.530629
    23  H   -0.000111  -0.000002   0.002823   0.004564  -0.000163  -0.040480
    24  O   -0.000002   0.000000  -0.000072   0.000308  -0.000221   0.000003
    25  H    0.000000   0.000000   0.000001   0.000004   0.000006   0.000000
    26  C   -0.000001   0.000000   0.000014  -0.001812  -0.000100   0.000011
    27  H    0.000000   0.000000   0.000000   0.000007   0.000003   0.000000
    28  H    0.000000   0.000000   0.000000   0.000068  -0.000044   0.000000
    29  H    0.000002   0.000000  -0.000018   0.004476   0.000609  -0.000044
    30  C    0.000000   0.000000   0.000000   0.000000   0.000000   0.000000
    31  C    0.000000   0.000000   0.000000   0.000000   0.000000   0.000000
    32  C    0.000000   0.000000   0.000000   0.000000   0.000000   0.000000
    33  C    0.000000   0.000000   0.000000   0.000000   0.000000   0.000000
    34  O    0.000000   0.000000   0.000000   0.000000   0.000000   0.000000
    35  H    0.000000   0.000000   0.000000   0.000000   0.000000   0.000000
    36  H    0.000000   0.000000   0.000000   0.000000   0.000000   0.000000
    37  H    0.000000   0.000000   0.000000   0.000000   0.000000   0.000000
    38  H    0.000000   0.000000   0.000000   0.000000   0.000000   0.000000
    39  H    0.000000   0.000000   0.000000   0.000000   0.000000   0.000000
              19         20         21         22         23         24
     1  N    0.000000   0.000000   0.000000   0.000000   0.000000  -0.160279
     2  C    0.000000  -0.000018   0.000000  -0.000001   0.000000  -0.057344
     3  H    0.000000   0.000000   0.000000   0.000000   0.000000   0.001703
     4  C    0.000000  -0.000008   0.000001  -0.000003   0.000000   0.155311
     5  O    0.000000   0.000075  -0.000004   0.000001   0.000000  -0.077049
     6  C    0.000002   0.000064   0.000000   0.000004   0.000000  -0.002201
     7  H    0.000000  -0.000001   0.000001   0.000002   0.000000   0.000560
     8  H    0.000000   0.000001   0.000000   0.000000   0.000000  -0.000094
     9  C   -0.000229   0.007711  -0.000181  -0.000091   0.000010   0.002607
    10  C   -0.000035  -0.000416   0.000005  -0.000040   0.000002   0.000102
    11  H    0.000001   0.000004   0.000000   0.000002   0.000000   0.000000
    12  C    0.004451  -0.004886   0.002409  -0.036765   0.000969  -0.000413
    13  N   -0.006136  -0.000172   0.000003   0.005351  -0.000111  -0.000002
    14  H    0.002857  -0.000002   0.000000  -0.000087  -0.000002   0.000000
    15  C   -0.040190  -0.042777   0.001016  -0.000487   0.002823  -0.000072
    16  C    0.000451   0.503564  -0.038596  -0.023536   0.004564   0.000308
    17  H    0.000016  -0.041971  -0.004833   0.004309  -0.000163  -0.000221
    18  C    0.347984  -0.027518   0.004690   0.530629  -0.040480   0.000003
    19  H    0.612368   0.004420  -0.000174  -0.040877  -0.005534   0.000000
    20  C    0.004420   4.910527   0.358013   0.521131  -0.040284  -0.000005
    21  H   -0.000174   0.358013   0.602183  -0.041622  -0.005330   0.000000
    22  C   -0.040877   0.521131  -0.041622   4.875446   0.357219   0.000000
    23  H   -0.005534  -0.040284  -0.005330   0.357219   0.603780   0.000000
    24  O    0.000000  -0.000005   0.000000   0.000000   0.000000   8.484676
    25  H    0.000000   0.000000   0.000000   0.000000   0.000000   0.060810
    26  C    0.000000  -0.000547  -0.000007  -0.000007   0.000000   0.195190
    27  H    0.000000   0.000000   0.000000   0.000000   0.000000  -0.032244
    28  H    0.000000   0.000002   0.000000   0.000000   0.000000  -0.033516
[...]
 6,0.00002696,-0.00085987,-0.00020059,0.00003630,0.00000170,0.00005465,
 -0.00000964,-0.00001100,0.00015932,0.00008772,-0.00003006,-0.00001807,
 -0.00016445,0.00004260,-0.00010727,-0.00000679,-0.00004716,-0.00002166
 ,-0.00000577,0.00000597,-0.00000414,0.00001189,0.00001514,-0.00001938,
 -0.00002001,0.00001488,0.00000151,-0.00000522,-0.00000845,-0.00000830,
 0.00000218,-0.00001209,0.00001051,0.00001251,-0.00002079,0.00001335,-0
 .00001132,0.00000026,0.00000068,-0.00000537,0.00001111,-0.00000617,-0.
 00000182,0.00000239,-0.00000216,0.00000028,-0.00000099,0.00000043,-0.0
 0000238,-0.00000351,0.00000216,-0.00000088,0.00000038,0.00000028,0.000
 00264,0.00000198,-0.00000276,0.00000229,-0.00000038,0.00000037,0.00000
 481,-0.00000171,-0.00000029,0.00000146,0.00000061,-0.00000038,0.000013
 51,-0.00001778,-0.00003631,-0.00000100,0.00040016,0.00005588,-0.000012
 57,0.00001061,0.00000999,0.00000112,0.00000100,-0.00000290,0.00000360,
 -0.00000098,0.00000159,0.00000130,-0.00000146,0.00000030,0.00046024,0.
 01216191,0.00088690,0.00030762,0.00654320,0.00066714,0.01641886,-0.037
 66924,0.01757735,-0.00036381,-0.00772133,-0.00061766,-0.00001241,-0.00
 098458,-0.00008560,-0.01812850,0.02544855,0.00007691,-0.00008831,0.000
 66233,0.00017044,-0.00007487,0.00009437,0.00003907,-0.00002479,0.00000
 668,0.00009572,-0.00006117,-0.00000305,-0.00005126,0.00002139,-0.00000
 533,-0.00001387,0.00001554,-0.00003055,-0.00001064,-0.00001214,-0.0000
 0386,0.00001482,0.00002823,0.00002278,0.00000967,0.00000557,-0.0000182
 4,-0.00000362,0.00002893,-0.00002452,-0.00000252,0.00001395,-0.0000051
 6,0.00001808,-0.00000411,-0.00000071,-0.00002232,-0.00002826,0.0000245
 8,-0.00000840,0.00000612,0.00000011,-0.00000196,-0.00001427,0.00001251
 ,0.00000185,-0.00000368,-0.00000165,0.00000524,0.00000144,0.00000210,0
 .00000523,0.00000308,-0.00000453,-0.00000005,-0.00000283,0.00000310,-0
 .00000050,-0.00000395,0.00000231,-0.00000257,0.00000132,0.00000046,-0.
 00000634,0.00000135,-0.00000064,-0.00000322,-0.00000119,0.00000202,-0.
 00006352,0.00002728,0.00004704,-0.00007166,0.00002130,0.00006284,0.000
 03572,-0.00001208,-0.00002512,-0.00000075,0.00000034,0.00000440,-0.000
 00613,0.00000333,0.00000031,-0.00000678,0.00000160,0.00000145,0.002127
 64,0.00111356,-0.00236633,0.00821212,-0.00034194,0.00767262,-0.1434235
 1,0.01783631,-0.20122288,0.00107677,-0.00072914,0.00095900,-0.00189446
 ,-0.00010738,0.00096089,0.15343952,-0.01937091,0.20476060,0.00170508,0
 .00001376,-0.00099106,-0.00012329,0.00003975,-0.00027388,-0.00010905,0
 .00005044,-0.00000177,-0.00021529,0.00013731,0.00020858,0.00014422,-0.
 00006178,-0.00004285,0.00001092,-0.00003732,0.00006666,0.00002830,0.00
 003214,0.00000699,-0.00002645,-0.00006254,-0.00005084,-0.00001840,-0.0
 0002186,0.00004215,-0.00001265,-0.00007233,0.00004652,-0.00000102,-0.0
 0001590,0.00002000,-0.00003687,0.00001147,-0.00000060,0.00004421,0.000
 05706,-0.00008426,0.00001576,0.00000510,0.00001314,0.00000742,0.000028
 76,-0.00001866,0.00000045,0.00000262,0.00000253,-0.00001030,-0.0000012
 9,-0.00000267,-0.00000711,-0.00000451,0.00000167,0.00000137,0.00000715
 ,-0.00000382,0.00000086,0.00000307,-0.00000384,0.00000425,-0.00000122,
 -0.00000025,0.00001145,-0.00000135,-0.00000253,0.00000499,0.00000261,-
 0.00000227,0.00013413,-0.00007116,-0.00019627,0.00035059,0.00001317,0.
 00013387,-0.00005868,0.00002299,0.00006674,0.00001095,-0.00000489,-0.0
 0001775,0.00001480,-0.00000558,-0.00000386,0.00001433,-0.00000570,-0.0
 0000593,-0.00196953,-0.00058126,0.00475576,-0.00419497,-0.00230301,0.0
 3193144,-0.07928178,-0.00475009,0.07279010,-0.00463728,0.00068614,-0.0
 0115290,0.00156689,0.00013106,-0.00253954,0.00857683,0.00145476,-0.019
 82443,0.07863303,-0.00011199,0.00027649,0.00001713,0.00002417,0.000412
 13,0.00011382,0.00000498,0.00000369,-0.00002030,-0.00000868,0.00003802
 ,-0.00002123,-0.00005032,-0.00001028,-0.00000873,0.00005949,0.00001596
 ,0.00004529,0.00000104,0.00001016,0.00001158,-0.00000108,0.00000675,-0
 .00000545,0.00001568,0.00000051,-0.00001343,-0.00003011,0.00003536,-0.
 00001589,-0.00000854,-0.00000851,-0.00000079,0.00000670,-0.00002389,0.
 00001423,0.00001812,-0.00004003,0.00004337,-0.00001618,-0.00000677,-0.
 00000161,-0.00001149,0.00001664,-0.00001178,-0.00001069,0.00000464,-0.
 00000908,0.00000299,0.00000167,0.00000547,-0.00000595,-0.00000706,0.00
 000713,-0.00000142,-0.00000009,0.00000049,0.00000825,0.00000336,-0.000
 00799,0.00000440,0.00000006,0.00000081,0.00000983,-0.00000387,0.000000
 45,0.00000230,0.00000051,-0.00000023,-0.00001988,-0.00002038,-0.000017
 04,-0.00001232,-0.00004021,-0.00002193,0.00001400,0.00000890,-0.000002
 26,0.00000306,0.00000366,-0.00000218,0.00000189,-0.00000242,0.00000230
 ,-0.00000529,0.00000032,-0.00000184,-0.00015177,-0.00746212,-0.0005250
 6,-0.00002122,0.00504018,-0.00033566,-0.00534211,-0.03938011,0.0212845
 7,0.00053043,0.01279194,0.00100266,0.00028127,-0.00047641,-0.00001125,
 -0.00066398,0.00262152,0.00176348,0.00548090,0.02717523,0.00075699,0.0
 0005958,-0.00023358,-0.00005307,0.00002265,-0.00010944,-0.00003195,0.0
 0001035,0.00002667,-0.00004863,0.00002056,0.00001471,0.00003936,-0.000
 01660,0.00000414,0.00000335,0.00000549,0.00002532,0.00000349,0.0000072
 0,0.00000267,0.00000113,-0.00000993,-0.00000273,-0.00000739,-0.0000025
 6,0.00001130,0.00002016,-0.00001389,0.00001149,0.00000740,0.00000126,-
 0.00000013,-0.00000978,0.00000273,-0.00000058,0.00000338,0.00001671,-0
 .00001066,0.00000387,-0.00000323,-0.00000325,-0.00000328,0.00000215,-0
 .00000207,0.00000002,0.00000126,0.00000142,-0.00000243,-0.00000051,-0.
 00000132,-0.00000056,0.00000035,0.00000019,-0.00000001,0.00000067,-0.0
 0000096,-0.00000121,0.00000080,0.00000038,0.00000052,-0.00000051,-0.00
 000022,0.00000002,0.00000008,0.00000058,0.00000096,0.00000054,-0.00000
 093,0.00003636,-0.00001881,-0.00001294,0.00007047,0.00000027,-0.000068
 32,-0.00001870,0.00000771,0.00001245,0.00000008,0.00000110,-0.00000151
 ,0.00000471,-0.00000230,0.00000076,0.00000335,-0.00000137,-0.00000087,
 -0.00095544,-0.00050239,-0.00134814,0.00364726,0.00063085,-0.00386565,
 0.07926565,0.02085996,-0.32498804,0.00023361,0.00100727,0.00082750,-0.
 00277217,0.00009543,-0.00056061,0.00618105,0.00105758,-0.01202497,-0.0
 8673031,-0.02311740,0.34193667,-0.00011536,-0.00010626,-0.00018350,0.0
 0047350,0.00006711,0.00005916,-0.00008378,-0.00000367,-0.00008582,0.00
 014815,-0.00007638,0.00012067,-0.00014473,0.00005957,-0.00006647,-0.00
 003813,0.00003287,-0.00001635,-0.00001411,-0.00002320,-0.00001235,0.00
 000346,-0.00000349,0.00000959,0.00003348,-0.00004355,-0.00001846,-0.00
 004102,0.00003495,-0.00007363,-0.00001313,0.00003597,0.00002304,0.0000
 2911,0.00000914,-0.00001278,-0.00002713,-0.00003506,0.00001082,-0.0000
 1350,0.00001692,-0.00000708,-0.00000406,-0.00002437,0.00003044,0.00001
 200,-0.00001337,-0.00000352,0.00000946,0.00000468,0.00000647,0.0000193
 3,0.00001360,-0.00001451,-0.00000017,-0.00000854,0.00000561,-0.0000045
 2,-0.00001378,0.00000905,-0.00000527,0.00000235,0.00000090,-0.00002135
 ,0.00000778,-0.00000191,-0.00000761,-0.00000272,0.00000320,-0.00013611
 ,0.00003631,-0.00003630,0.00067193,0.00004891,0.00008095,0.00011357,-0
 .00004400,-0.00007699,0.00000786,-0.00000291,0.00000187,-0.00001694,0.
 00001006,-0.00000029,-0.00001992,0.00000370,0.00000275,-0.00223829,-0.
 00008721,0.00260912,0.00982393,-0.00091140,0.00792230,0.00082382,-0.00
 018733,0.00171311,-0.21226673,0.01556040,-0.13305237,0.00102378,-0.000
 07870,0.00045400,0.00013197,-0.00002845,0.00001608,0.00017221,0.000009
 80,-0.00014245,0.22875220,0.00002416,0.00049842,0.00009374,0.00002068,
 0.00019242,-0.00006752,-0.00003848,0.00001823,-0.00005081,-0.00002537,
 -0.00002866,-0.00008643,0.00003442,-0.00000887,0.00003931,0.00002706,-
 0.00003333,0.00005761,0.00000154,0.00002316,0.00000164,-0.00000038,0.0
 0000494,0.00000122,0.00001813,-0.00004553,0.00001544,-0.00004386,-0.00
 002271,-0.00003587,-0.00001579,0.00003314,0.00002724,0.00000884,0.0000
 1165,-0.00000876,0.00001439,0.00001459,-0.00004656,-0.00000868,0.00001
 417,0.00000127,-0.00001280,-0.00000499,0.00001751,0.00001135,-0.000005
 93,0.00000533,-0.00000265,-0.00000040,-0.00000273,0.00001452,0.0000085
 5,-0.00001130,-0.00000054,-0.00000167,0.00000183,-0.00000712,-0.000006
 50,0.00000766,-0.00000181,-0.00000029,0.00000026,-0.00001356,0.0000047
 4,-0.00000179,-0.00000138,0.00000048,0.00000008,0.00005012,0.00004537,
 0.00004724,0.00005262,-0.00108357,-0.00003487,-0.00003403,0.00000949,0
 .00001650,-0.00000709,-0.00000281,0.00000312,0.00000119,0.,-0.00000068
 ,0.00001106,-0.00000205,0.00000119,-0.00034898,0.00113275,0.00016769,0
 .00165981,-0.00066617,0.00147280,0.00013884,-0.00045162,-0.00021615,0.
 01529921,-0.05018905,0.01226831,0.00005997,-0.00006061,0.00020823,-0.0
 0009031,0.00036421,-0.00001799,-0.00001046,-0.00021457,-0.00004618,-0.
 01666794,0.04837682,-0.00036843,0.00005712,0.00064407,0.00004441,-0.00
 005398,0.00041428,0.00012325,-0.00003302,-0.00001666,0.00015335,-0.000
 10489,-0.00026068,-0.00011509,0.00005016,0.00005842,-0.00001624,0.0000
 3408,-0.00004017,-0.00002016,-0.00002639,-0.00000994,0.00001319,0.0000
 4502,0.00002995,0.00001771,0.00002155,-0.00003321,0.00000562,0.0000533
 8,-0.00003409,-0.00000362,0.00001618,-0.00001412,0.00002726,-0.0000144
 7,0.00000374,-0.00002755,-0.00004875,0.00006570,-0.00001785,-0.0000051
 6,-0.00000973,-0.00001228,-0.00001841,0.00001211,-0.00000244,-0.000000
 09,-0.00000218,0.00000738,0.00000038,0.00000124,0.00000446,0.00000197,
 0.00000006,-0.00000144,-0.00000434,0.00000267,0.00000005,-0.00000104,0
 .00000232,-0.00000216,0.00000047,0.00000015,-0.00000685,0.00000007,0.0
 0000201,-0.00000266,-0.00000158,0.00000128,-0.00008809,0.00005779,0.00
 017588,-0.00030159,-0.00007013,-0.00058377,0.00002674,-0.00001311,-0.0
 0003806,-0.00001066,0.00000379,0.00001466,-0.00000812,0.00000201,0.000
 00167,-0.00000782,0.00000456,0.00000431,0.00542037,0.00004813,-0.00188
 146,-0.02507924,0.00251263,-0.02180421,-0.00193030,-0.00011937,0.00173
 122,-0.13032321,0.01219746,-0.15351525,-0.00125647,0.00026497,-0.00273
 075,0.00139819,-0.00003052,0.00020733,-0.00006174,-0.00003467,0.000402
 93,0.14136671,-0.01394722,0.16826993,0.00017973,-0.00018444,-0.0004264
 9,-0.00004940,-0.00006937,-0.00015109,-0.00000153,0.00001377,0.0000348
 1,-0.00003998,0.00006072,-0.00011872,0.00009896,-0.00005380,0.00007219
 ,0.00000683,-0.00000016,0.00001657,0.00001620,0.00001099,0.00000038,-0
 .00000620,-0.00001500,-0.00001895,-0.00001021,-0.00001319,0.00002540,-
 0.00000794,-0.00004386,0.00001396,-0.00000887,0.00000423,0.00002452,-0
 .00001470,0.00000957,-0.00000014,0.00001964,0.00002949,-0.00004958,0.0
 0001073,0.00000869,0.00000936,0.00000035,0.00000408,-0.00000467,0.0000
 0075,0.00000329,0.00000386,-0.00000622,-0.00000217,-0.00000399,-0.0000
 0023,0.00000005,0.00000051,0.00000018,0.00000229,-0.00000169,-0.000003
 28,0.00000163,0.00000077,0.00000162,-0.00000114,-0.00000032,0.00000015
 ,0.00000012,0.00000022,0.00000220,0.00000147,-0.00000148,0.00015285,-0
 .00003028,0.00011609,-0.00025952,-0.00027322,-0.00114652,-0.00009151,0
 .00004110,0.00004617,-0.00001112,0.00001030,-0.00000137,0.00001895,-0.
 00000849,0.00000762,0.00001598,-0.00000680,-0.00000215,-0.00104703,-0.
 00009967,-0.00054893,-0.00797693,0.00738047,0.00536665,0.00079313,0.00
 007686,0.00208089,-0.12009941,0.11136033,0.03184195,0.00029368,-0.0001
 0848,0.00030044,0.00024613,0.00089808,0.00010720,-0.00041225,-0.001258
 61,0.00014748,-0.01288578,0.02105208,0.00720651,0.12953074,-0.00003948
 ,0.00059321,0.00048769,-0.00042197,0.00006650,0.00006281,0.00006665,0.
 00001671,0.00007208,-0.00003290,0.00000301,-0.00041308,0.00011339,-0.0
 0003214,0.00017406,0.00003333,-0.00007271,0.00004761,0.00001079,0.0000
 3566,-0.00000018,-0.00000032,0.00001538,0.00000639,-0.00002988,-0.0000
 1872,0.00003990,0.00002300,-0.00009013,0.00001722,-0.00001035,0.000027
 97,0.00005476,-0.00001732,0.00004426,-0.00002159,-0.00000829,0.0000798
 8,-0.00010338,0.00004202,0.00002007,0.00001638,0.00002084,-0.00002883,
 0.00001422,0.00001345,0.00000262,0.00001726,-0.00001017,-0.00000502,-0
 .00001332,0.00000802,0.00000986,-0.00000301,0.00000157,-0.00000032,-0.
 00000356,-0.00001890,-0.00000006,0.00001499,-0.00000439,-0.00000250,-0
 .00000278,-0.00001840,0.00000622,0.00000380,-0.00000176,-0.00000043,-0
 .00000252,0.00010081,-0.00000047,0.00028056,-0.00072347,-0.00091182,-0
 .00084938,-0.00010562,0.00002451,-0.00000454,-0.00002740,0.00001724,0.
 00002081,0.00001718,-0.00000818,0.00001153,0.00001897,-0.00000586,0.00
 000535,0.00210976,0.00006327,-0.00019843,-0.00260880,0.00606282,-0.000
 14866,-0.00082775,-0.00005927,0.00032438,0.11058139,-0.21671405,-0.052
 13848,-0.00066704,-0.00005671,0.00006337,-0.00008383,0.00022132,0.0000
 2263,-0.00011249,-0.00053723,0.00006773,0.00002391,-0.00096933,0.00047
 224,-0.12234695,0.23438384,-0.00108680,0.00077357,0.00049253,-0.000510
 57,0.00008176,-0.00016969,0.00005321,-0.00001703,0.00004590,-0.0001248
 2,-0.00000952,-0.00019700,0.00011335,-0.00003212,0.00007704,0.00008408
 ,-0.00004138,0.00004737,0.00001542,0.00003824,0.00001855,-0.00000160,0
 .00000747,-0.00000137,-0.00002001,0.00000459,0.00004007,0.00002357,-0.
 00004554,0.00002668,0.00001137,0.00000285,-0.00000736,-0.00001660,0.00
 000586,0.00000173,0.00002019,0.00004348,-0.00003676,0.00000343,-0.0000
 0799,-0.00000364,-0.00001390,0.00000858,-0.00000640,0.00000172,0.00000
 324,0.00000915,-0.00000934,-0.00000449,-0.00000819,-0.00000131,-0.0000
 0040,-0.00000005,-0.00000039,0.00000386,-0.00000282,-0.00000319,0.0000
 0405,0.00000090,0.00000156,-0.00000211,-0.00000059,0.00000324,-0.00000
 069,-0.00000005,0.00000367,0.00000204,-0.00000235,0.00019125,0.0000336
 9,0.00007206,-0.00103310,-0.00124825,-0.00090632,-0.00011410,0.0000409
 9,0.00011404,-0.00000093,-0.00000592,-0.00000548,0.00001146,-0.0000081
 3,-0.00000850,0.00002862,-0.00000447,-0.00000862,0.00271356,-0.0004875
 8,0.00040920,0.01892397,-0.02574165,-0.00847193,-0.00074367,0.00033495
 ,-0.00391605,0.03323117,-0.05361659,-0.06501993,-0.00078644,0.00038236
 ,0.00025203,0.00009820,-0.00090875,0.00004002,0.00103809,0.00212612,0.
 00017230,-0.00988473,0.01781469,0.00593687,-0.03929910,0.05770360,0.07
 028615,0.00024171,0.00031388,-0.00044483,0.00006469,0.00009685,-0.0001
 6516,-0.00003341,0.00002644,-0.00002537,-0.00004986,0.00002348,-0.0000
 3284,0.00008716,-0.00001910,0.00003709,0.00001482,-0.00005307,0.000041
 00,0.00000957,0.00002562,0.00000625,-0.00000878,-0.00001596,-0.0000075
 5,-0.00007840,0.00002825,0.00002937,0.00011612,-0.00008341,0.00008353,
 -0.00001504,0.00001804,0.00005697,-0.00002268,0.00004235,-0.00002566,-
 0.00004981,0.00005914,-0.00008246,0.00005775,0.00002429,0.00002823,0.0
 0004153,-0.00002613,-0.00000447,-0.00000094,0.00000206,0.00001036,-0.0
 0000752,-0.00000152,-0.00000674,-0.00000783,0.00000233,0.00000171,0.00
 000353,0.00000486,-0.00000290,-0.00000773,0.00000386,0.00000132,-0.000
 00279,-0.00000021,-0.00000116,-0.00000097,-0.00000065,0.00000267,-0.00
 000026,0.00000019,-0.00000097,0.00003875,-0.00003116,0.00001479,-0.000
 18820,0.00034608,-0.00106449,-0.00005075,0.00001125,0.00003080,-0.0000
 0337,0.00000559,-0.00000117,0.00001195,-0.00000470,0.00000139,0.000010
 21,-0.00000495,-0.00000217,-0.00142060,0.00021906,-0.00047824,-0.00840
 216,-0.00729229,0.00425873,0.00087540,-0.00047795,0.00207047,-0.133029
 44,-0.11934152,0.01579920,0.00039574,0.00003441,0.00027637,0.00019469,
 -0.00091369,-0.00003357,-0.00033812,0.00125232,0.00034671,-0.01415217,
 -0.02116877,0.00384878,0.01154331,0.01493239,-0.00292053,0.14416391,0.
 00026494,0.00052876,-0.00031502,0.00051478,0.00023597,-0.00009910,-0.0
 0013612,0.00001015,-0.00014678,0.00007451,-0.00009128,0.00024041,-0.00
 011624,0.00005557,-0.00011066,0.00000322,0.00001049,0.00004470,-0.0000
 0911,-0.00000467,-0.00000480,-0.00000041,-0.00000992,-0.00000295,-0.00
 000824,-0.00001253,-0.00002422,-0.00001294,0.00002902,0.00001276,-0.00
 001059,0.00001271,-0.00002201,0.00005295,-0.00000191,-0.00002324,-0.00
 004846,-0.00004996,0.00000530,-0.00002020,0.00001814,0.00001310,0.0000
 3628,-0.00000841,0.00001776,-0.00000324,-0.00001323,-0.00000701,0.0000
 0588,0.00000515,0.00000639,0.00000082,0.00000033,-0.00001410,0.0000018
 1,0.00000287,0.00000588,0.00000778,-0.00000114,-0.00000755,-0.00000381
 ,0.00000376,0.00000205,0.00000470,-0.00000651,-0.00000219,-0.00000313,
 -0.00000046,0.00000422,-0.00005586,0.00010652,-0.00013844,0.00103227,-
 0.00108196,0.00093543,0.00008835,-0.00003943,-0.00002414,0.00000913,-0
 .00002886,-0.00000531,-0.00002475,0.00001516,-0.00001490,-0.00000624,0
 .00000553,0.00000546,-0.00253804,0.00006280,0.00016874,0.00020959,0.00
 212671,0.00147151,0.00087201,-0.00005903,0.00022055,-0.11888984,-0.214
 10577,0.02545593,0.00080131,-0.00001832,-0.00012111,0.00006984,0.00011
 456,-0.00001773,-0.00005553,-0.00023376,-0.00014460,0.00238426,0.00304
 551,-0.00131684,-0.01645398,-0.02218058,0.00276661,0.13196231,0.231558
 03,-0.00110774,-0.00041428,0.00011047,-0.00032603,-0.00000288,-0.00005
 867,0.00005594,-0.00003219,0.00008036,-0.00010702,0.00006068,0.0000532
 0,0.00007594,-0.00004401,-0.00000532,0.00001249,-0.00005709,-0.0000231
 2,0.00001246,0.00000144,0.00003039,0.00000380,0.00000833,-0.00000699,-
 0.00009882,0.00021711,-0.00007925,0.00016345,0.00002849,0.00027312,0.0
 0003149,-0.00013384,-0.00017393,-0.00000443,-0.00005557,0.00002526,-0.
 00005124,-0.00006585,0.00006836,-0.00000269,-0.00001699,0.00001651,0.0
 0008781,0.00004424,-0.00006487,-0.00004373,0.00002411,-0.00001534,-0.0
 0000319,-0.00000316,0.00000116,-0.00006025,-0.00003823,0.00003215,0.00
 000075,0.00001516,-0.00000678,0.00002617,0.00003809,-0.00003696,0.0000
 1202,-0.00000105,-0.00000015,0.00006907,-0.00002798,0.00000567,0.00001
 112,0.00000298,-0.00000259,0.00005346,-0.00004982,-0.00008176,-0.00118
 261,0.00123410,-0.00045413,-0.00004624,0.00003072,0.00006936,0.0000034
 3,-0.00000838,-0.00001172,0.00001119,-0.00000759,-0.00000662,0.0000082
 6,-0.00000001,-0.00000188,0.00230276,0.00017543,0.00050236,0.02085816,
 0.02602497,-0.00395013,-0.00068791,0.00031762,-0.00388128,0.01762699,0
 .02707233,-0.05260129,-0.00071199,-0.00039242,0.00013414,0.00016944,0.
 00091619,0.00018769,0.00088779,-0.00225308,-0.00021455,-0.01075633,-0.
 01769504,0.00299150,-0.00564836,-0.00609843,0.00073053,-0.02164542,-0.
 02881411,0.05636511||-0.00000030,0.00000024,0.00000046,-0.00000012,0.0
 0000069,0.00000080,-0.00000055,0.00000144,0.00000127,-0.00000081,0.000
 00102,0.00000094,0.00000013,0.00000093,0.00000251,-0.00000018,0.000001
 60,-0.00000020,-0.00000093,0.00000200,0.00000029,-0.00000084,0.0000016
 9,-0.00000057,-0.00000094,0.00000123,-0.00000080,-0.00000009,-0.000000
 16,-0.00000142,-0.00000021,0.00000044,-0.00000209,-0.00000013,0.000000
 29,-0.00000045,0.00000002,-0.00000016,-0.00000224,0.00000004,-0.000000
 59,-0.00000260,0.00000003,-0.00000020,-0.00000134,-0.00000059,0.000000
 77,0.00000030,-0.00000034,0.00000116,0.00000086,0.00000006,-0.00000055
 ,-0.00000151,0.00000025,-0.00000102,-0.00000203,0.00000004,0.00000038,
 0.00000011,-0.00000013,0.00000040,0.00000084,0.00000020,-0.00000039,-0
 .00000059,0.00000025,-0.00000066,-0.00000069,0.00000022,-0.00000046,0.
 00000201,0.00000007,-0.00000044,0.00000034,0.00000058,-0.00000069,0.00
 000233,0.00000079,-0.00000147,0.00000236,0.00000037,-0.00000044,0.0000
 0313,0.00000035,-0.00000059,0.00000211,0.00000035,0.00000043,-0.000000
 41,0.00000012,-0.00000052,-0.00000033,0.00000021,-0.00000036,-0.000000
 76,0.00000066,-0.00000137,-0.00000025,-0.00000071,0.00000117,0.0000002
 3,0.00000030,-0.00000090,-0.00000104,-0.00000026,0.00000041,-0.0000007
 8,0.00000080,-0.00000206,-0.00000057,0.00000072,-0.00000166,0.00000049
 ,0.00000059,-0.00000162,-0.00000071|||@


 HE WHO LOVES TO READ, AND KNOWS HOW TO REFLECT,
 HAS LAID BY A PERPETUAL FEAST FOR HIS OLD AGE.
 -- UNCLE ESEK, "SCRIBNER'S MONTHLY", SEPT. 1880
 Job cpu time:       0 days  0 hours 33 minutes 56.0 seconds.
 File lengths (MBytes):  RWF=    530 Int=      0 D2E=      0 Chk=     11 Scr=      1
 Normal termination of Gaussian 09 at Sun Jan 28 14:09:32 2024.
