 Entering Link 1 = C:\G09W\l1.exe PID=    119568.
  
 Copyright (c) 1988,1990,1992,1993,1995,1998,2003,2009,2013,
            Gaussian, Inc.  All Rights Reserved.
  
 This is part of the Gaussian(R) 09 program.  It is based on
 the Gaussian(R) 03 system (copyright 2003, Gaussian, Inc.),
 the Gaussian(R) 98 system (copyright 1998, Gaussian, Inc.),
 the Gaussian(R) 94 system (copyright 1995, Gaussian, Inc.),
 the Gaussian 92(TM) system (copyright 1992, Gaussian, Inc.),
 the Gaussian 90(TM) system (copyright 1990, Gaussian, Inc.),
 the Gaussian 88(TM) system (copyright 1988, Gaussian, Inc.),
 the Gaussian 86(TM) system (copyright 1986, Carnegie Mellon
 University), and the Gaussian 82(TM) system (copyright 1983,
 Carnegie Mellon University). Gaussian is a federally registered
 trademark of Gaussian, Inc.
  
 This software contains proprietary and confidential information,
 including trade secrets, belonging to Gaussian, Inc.
  
 This software is provided under written license and may be
 used, copied, transmitted, or stored only in accord with that
 written license.
  
 The following legend is applicable only to US Government
 contracts under FAR:
  
                    RESTRICTED RIGHTS LEGEND
  
 Use, reproduction and disclosure by the US Government is
 subject to restrictions as set forth in subparagraphs (a)
 and (c) of the Commercial Computer Software - Restricted
 Rights clause in FAR 52.227-19.
  
 Gaussian, Inc.
 340 Quinnipiac St., Bldg. 40, Wallingford CT 06492
  
  
 ---------------------------------------------------------------
 Warning -- This program may not be used in any manner that
 competes with the business of Gaussian, Inc. or will provide
 assistance to any competitor of Gaussian, Inc.  The licensee
 of this program is prohibited from giving any competitor of
 Gaussian, Inc. access to this program.  By using this program,
 the user acknowledges that Gaussian, Inc. is engaged in the
 business of creating and licensing software in the field of
 computational chemistry and represents and warrants to the
 licensee that it is not a competitor of Gaussian, Inc. and that
 it will not use this program in any manner prohibited above.
 ---------------------------------------------------------------
  

 Cite this work as:
 Gaussian 09, Revision D.01,
 M. J. Frisch, G. W. Trucks, H. B. Schlegel, G. E. Scuseria, 
 M. A. Robb, J. R. Cheeseman, G. Scalmani, V. Barone, B. Mennucci, 
 G. A. Petersson, H. Nakatsuji, M. Caricato, X. Li, H. P. Hratchian, 
 A. F. Izmaylov, J. Bloino, G. Zheng, J. L. Sonnenberg, M. Hada, 
 M. Ehara, K. Toyota, R. Fukuda, J. Hasegawa, M. Ishida, T. Nakajima, 
 Y. Honda, O. Kitao, H. Nakai, T. Vreven, J. A. Montgomery, Jr., 
 J. E. Peralta, F. Ogliaro, M. Bearpark, J. J. Heyd, E. Brothers, 
 K. N. Kudin, V. N. Staroverov, T. Keith, R. Kobayashi, J. Normand, 
 K. Raghavachari, A. Rendell, J. C. Burant, S. S. Iyengar, J. Tomasi, 
 M. Cossi, N. Rega, J. M. Millam, M. Klene, J. E. Knox, J. B. Cross, 
 V. Bakken, C. Adamo, J. Jaramillo, R. Gomperts, R. E. Stratmann, 
 O. Yazyev, A. J. Austin, R. Cammi, C. Pomelli, J. W. Ochterski, 
 R. L. Martin, K. Morokuma, V. G. Zakrzewski, G. A. Voth, 
 P. Salvador, J. J. Dannenberg, S. Dapprich, A. D. Daniels, 
 O. Farkas, J. B. Foresman, J. V. Ortiz, J. Cioslowski, 
 and D. J. Fox, Gaussian, Inc., Wallingford CT, 2013.
 
 ******************************************
 Gaussian 09:  IA32W-G09RevD.01 24-Apr-2013
                07-Feb-2024 
 ******************************************
 %nprocshared=8
 Will use up to    8 processors via shared memory.
 %chk=D:\backups\Depo1\ChemChem\3\out\MATrp\MATrp_D7\MATrp_D7.chk
 ---------------------------------------------------------------
 #p opt=tight freq b3lyp/6-31g(d,p) guess=save geom=connectivity
 ---------------------------------------------------------------
 1/7=10,14=-1,18=20,19=15,26=3,38=1,57=2/1,3;
 2/9=110,12=2,17=6,18=5,40=1/2;
 3/5=1,6=6,7=101,11=2,16=1,25=1,30=1,71=1,74=-5/1,2,3;
 4//1;
 5/5=2,38=5/2;
 6/7=2,8=2,9=2,10=2,28=1/1;
 7//1,2,3,16;
 1/7=10,14=-1,18=20,19=15,26=3/3(2);
 2/9=110/2;
 99//99;
 2/9=110/2;
 3/5=1,6=6,7=101,11=2,16=1,25=1,30=1,71=1,74=-5/1,2,3;
 4/5=5,16=3,69=1/1;
 5/5=2,38=5/2;
 7//1,2,3,16;
 1/7=10,14=-1,18=20,19=15,26=3/3(-5);
 2/9=110/2;
 6/7=2,8=2,9=2,10=2,19=2,28=1/1;
 99/9=1/99;
 Leave Link    1 at Wed Feb 07 22:50:26 2024, MaxMem=           0 cpu:         0.0
 (Enter C:\G09W\l101.exe)
 --------------------------------
 MATrp OptFreq tight B3LYP/6-31Gd
 --------------------------------
 Symbolic Z-matrix:
 Charge =  0 Multiplicity = 1
 N                     1.89042   0.43519   0.00468 
 C                     1.02163   1.1257   -0.92808 
 H                     1.65812   1.69334  -1.61331 
 C                     0.10842   2.1259   -0.23426 
 O                    -0.54394   2.95334  -0.83323 
 C                     0.1756    0.14839  -1.80787 
 H                    -0.41602   0.75942  -2.49884 
 H                     0.90047  -0.41104  -2.40722 
 C                    -0.70243  -0.79536  -1.03976 
 C                    -0.36646  -2.07065  -0.65473 
 H                     0.54162  -2.62674  -0.84573 
 C                    -2.04071  -0.56322  -0.54193 
 N                    -1.4032   -2.64295   0.0579 
 H                    -1.42014  -3.59094   0.3998 
 C                    -2.44903  -1.74594   0.13628 
 C                    -2.942     0.51597  -0.61602 
 H                    -2.66292   1.43295  -1.12659 
 C                    -3.70657  -1.87218   0.73593 
 H                    -3.99885  -2.78546   1.24821 
 C                    -4.1925    0.39383  -0.02151 
 H                    -4.89543   1.22064  -0.07837 
 C                    -4.57117  -0.78753   0.64901 
 H                    -5.55672  -0.85329   1.1019 
 O                     0.06513   1.96078   1.10446 
 H                     1.76256  -0.55968   0.10613 
 C                    -0.86409   2.8089    1.80613 
 H                    -0.69935   2.6083    2.86495 
 H                    -0.67135   3.85865   1.57443 
 H                    -1.88726   2.55219   1.52065 
 C                     2.90378   1.08938   0.64865 
 C                     3.7438    0.24467   1.57713 
 C                     4.74417   0.85861   2.21807 
 C                     3.43906  -1.22405   1.75171 
 O                     3.1061    2.29116   0.47857 
 H                     5.39421   0.32499   2.906 
 H                     4.92188   1.91728   2.06101 
 H                     4.13598  -1.6831    2.45868 
 H                     2.42306  -1.38629   2.13551 
 H                     3.52111  -1.77382   0.8039 
 
 NAtoms=     39 NQM=       39 NQMF=       0 NMMI=      0 NMMIF=      0
                NMic=       0 NMicF=      0.
                    Isotopes and Nuclear Properties:
 (Nuclear quadrupole moments (NQMom) in fm**2, nuclear magnetic moments (NMagM)
  in nuclear magnetons)

  Atom         1           2           3           4           5           6           7           8           9          10
 IAtWgt=          14          12           1          12          16          12           1           1          12          12
 AtmWgt=  14.0030740  12.0000000   1.0078250  12.0000000  15.9949146  12.0000000   1.0078250   1.0078250  12.0000000  12.0000000
 NucSpn=           2           0           1           0           0           0           1           1           0           0
 AtZEff=   0.0000000   0.0000000   0.0000000   0.0000000   0.0000000   0.0000000   0.0000000   0.0000000   0.0000000   0.0000000
 NQMom=    2.0440000   0.0000000   0.0000000   0.0000000   0.0000000   0.0000000   0.0000000   0.0000000   0.0000000   0.0000000
 NMagM=    0.4037610   0.0000000   2.7928460   0.0000000   0.0000000   0.0000000   2.7928460   2.7928460   0.0000000   0.0000000
 AtZNuc=   7.0000000   6.0000000   1.0000000   6.0000000   8.0000000   6.0000000   1.0000000   1.0000000   6.0000000   6.0000000

  Atom        11          12          13          14          15          16          17          18          19          20
 IAtWgt=           1          12          14           1          12          12           1          12           1          12
 AtmWgt=   1.0078250  12.0000000  14.0030740   1.0078250  12.0000000  12.0000000   1.0078250  12.0000000   1.0078250  12.0000000
 NucSpn=           1           0           2           1           0           0           1           0           1           0
 AtZEff=   0.0000000   0.0000000   0.0000000   0.0000000   0.0000000   0.0000000   0.0000000   0.0000000   0.0000000   0.0000000
 NQMom=    0.0000000   0.0000000   2.0440000   0.0000000   0.0000000   0.0000000   0.0000000   0.0000000   0.0000000   0.0000000
 NMagM=    2.7928460   0.0000000   0.4037610   2.7928460   0.0000000   0.0000000   2.7928460   0.0000000   2.7928460   0.0000000
 AtZNuc=   1.0000000   6.0000000   7.0000000   1.0000000   6.0000000   6.0000000   1.0000000   6.0000000   1.0000000   6.0000000

  Atom        21          22          23          24          25          26          27          28          29          30
 IAtWgt=           1          12           1          16           1          12           1           1           1          12
 AtmWgt=   1.0078250  12.0000000   1.0078250  15.9949146   1.0078250  12.0000000   1.0078250   1.0078250   1.0078250  12.0000000
 NucSpn=           1           0           1           0           1           0           1           1           1           0
 AtZEff=   0.0000000   0.0000000   0.0000000   0.0000000   0.0000000   0.0000000   0.0000000   0.0000000   0.0000000   0.0000000
 NQMom=    0.0000000   0.0000000   0.0000000   0.0000000   0.0000000   0.0000000   0.0000000   0.0000000   0.0000000   0.0000000
 NMagM=    2.7928460   0.0000000   2.7928460   0.0000000   2.7928460   0.0000000   2.7928460   2.7928460   2.7928460   0.0000000
 AtZNuc=   1.0000000   6.0000000   1.0000000   8.0000000   1.0000000   6.0000000   1.0000000   1.0000000   1.0000000   6.0000000

  Atom        31          32          33          34          35          36          37          38          39
 IAtWgt=          12          12          12          16           1           1           1           1           1
 AtmWgt=  12.0000000  12.0000000  12.0000000  15.9949146   1.0078250   1.0078250   1.0078250   1.0078250   1.0078250
 NucSpn=           0           0           0           0           1           1           1           1           1
 AtZEff=   0.0000000   0.0000000   0.0000000   0.0000000   0.0000000   0.0000000   0.0000000   0.0000000   0.0000000
 NQMom=    0.0000000   0.0000000   0.0000000   0.0000000   0.0000000   0.0000000   0.0000000   0.0000000   0.0000000
 NMagM=    0.0000000   0.0000000   0.0000000   0.0000000   2.7928460   2.7928460   2.7928460   2.7928460   2.7928460
 AtZNuc=   6.0000000   6.0000000   6.0000000   8.0000000   1.0000000   1.0000000   1.0000000   1.0000000   1.0000000
 Leave Link  101 at Wed Feb 07 22:50:26 2024, MaxMem=    33554432 cpu:         0.0
 (Enter C:\G09W\l103.exe)

 GradGradGradGradGradGradGradGradGradGradGradGradGradGradGradGradGradGrad
 Berny optimization.
 Initialization pass.
                           ----------------------------
                           !    Initial Parameters    !
                           ! (Angstroms and Degrees)  !
 --------------------------                            --------------------------
 ! Name  Definition              Value          Derivative Info.                !
 --------------------------------------------------------------------------------
 ! R1    R(1,2)                  1.4497         estimate D2E/DX2                !
 ! R2    R(1,25)                 1.0082         estimate D2E/DX2                !
 ! R3    R(1,30)                 1.3673         estimate D2E/DX2                !
 ! R4    R(2,3)                  1.094          estimate D2E/DX2                !
 ! R5    R(2,4)                  1.5218         estimate D2E/DX2                !
 ! R6    R(2,6)                  1.5636         estimate D2E/DX2                !
 ! R7    R(4,5)                  1.212          estimate D2E/DX2                !
 ! R8    R(4,24)                 1.3496         estimate D2E/DX2                !
 ! R9    R(6,7)                  1.0958         estimate D2E/DX2                !
 ! R10   R(6,8)                  1.0944         estimate D2E/DX2                !
 ! R11   R(6,9)                  1.5005         estimate D2E/DX2                !
 ! R12   R(9,10)                 1.3739         estimate D2E/DX2                !
 ! R13   R(9,12)                 1.4466         estimate D2E/DX2                !
 ! R14   R(10,11)                1.0818         estimate D2E/DX2                !
 ! R15   R(10,13)                1.3821         estimate D2E/DX2                !
 ! R16   R(12,15)                1.4232         estimate D2E/DX2                !
 ! R17   R(12,16)                1.408          estimate D2E/DX2                !
 ! R18   R(13,14)                1.0079         estimate D2E/DX2                !
 ! R19   R(13,15)                1.38           estimate D2E/DX2                !
 ! R20   R(15,18)                1.3989         estimate D2E/DX2                !
 ! R21   R(16,17)                1.086          estimate D2E/DX2                !
 ! R22   R(16,20)                1.39           estimate D2E/DX2                !
 ! R23   R(18,19)                1.0872         estimate D2E/DX2                !
 ! R24   R(18,22)                1.3898         estimate D2E/DX2                !
 ! R25   R(20,21)                1.0867         estimate D2E/DX2                !
 ! R26   R(20,22)                1.4102         estimate D2E/DX2                !
 ! R27   R(22,23)                1.0866         estimate D2E/DX2                !
 ! R28   R(24,26)                1.4405         estimate D2E/DX2                !
 ! R29   R(26,27)                1.0902         estimate D2E/DX2                !
 ! R30   R(26,28)                1.0922         estimate D2E/DX2                !
 ! R31   R(26,29)                1.0928         estimate D2E/DX2                !
 ! R32   R(30,31)                1.5104         estimate D2E/DX2                !
 ! R33   R(30,34)                1.2305         estimate D2E/DX2                !
 ! R34   R(31,32)                1.3373         estimate D2E/DX2                !
 ! R35   R(31,33)                1.5101         estimate D2E/DX2                !
 ! R36   R(32,35)                1.0865         estimate D2E/DX2                !
 ! R37   R(32,36)                1.0849         estimate D2E/DX2                !
 ! R38   R(33,37)                1.0937         estimate D2E/DX2                !
 ! R39   R(33,38)                1.0981         estimate D2E/DX2                !
 ! R40   R(33,39)                1.0988         estimate D2E/DX2                !
 ! A1    A(2,1,25)             117.308          estimate D2E/DX2                !
 ! A2    A(2,1,30)             121.2844         estimate D2E/DX2                !
 ! A3    A(25,1,30)            121.2475         estimate D2E/DX2                !
 ! A4    A(1,2,3)              107.5463         estimate D2E/DX2                !
 ! A5    A(1,2,4)              112.2934         estimate D2E/DX2                !
 ! A6    A(1,2,6)              112.8654         estimate D2E/DX2                !
 ! A7    A(3,2,4)              107.0783         estimate D2E/DX2                !
 ! A8    A(3,2,6)              106.6588         estimate D2E/DX2                !
 ! A9    A(4,2,6)              110.0381         estimate D2E/DX2                !
 ! A10   A(2,4,5)              123.1202         estimate D2E/DX2                !
 ! A11   A(2,4,24)             113.0226         estimate D2E/DX2                !
 ! A12   A(5,4,24)             123.8134         estimate D2E/DX2                !
 ! A13   A(2,6,7)              107.3605         estimate D2E/DX2                !
 ! A14   A(2,6,8)              105.6208         estimate D2E/DX2                !
 ! A15   A(2,6,9)              114.9414         estimate D2E/DX2                !
 ! A16   A(7,6,8)              107.2966         estimate D2E/DX2                !
 ! A17   A(7,6,9)              110.9504         estimate D2E/DX2                !
 ! A18   A(8,6,9)              110.2691         estimate D2E/DX2                !
 ! A19   A(6,9,10)             125.7452         estimate D2E/DX2                !
 ! A20   A(6,9,12)             128.0651         estimate D2E/DX2                !
 ! A21   A(10,9,12)            106.1853         estimate D2E/DX2                !
 ! A22   A(9,10,11)            129.2678         estimate D2E/DX2                !
 ! A23   A(9,10,13)            110.2085         estimate D2E/DX2                !
 ! A24   A(11,10,13)           120.5198         estimate D2E/DX2                !
 ! A25   A(9,12,15)            107.2204         estimate D2E/DX2                !
 ! A26   A(9,12,16)            134.1927         estimate D2E/DX2                !
 ! A27   A(15,12,16)           118.5792         estimate D2E/DX2                !
 ! A28   A(10,13,14)           125.2381         estimate D2E/DX2                !
 ! A29   A(10,13,15)           109.1835         estimate D2E/DX2                !
 ! A30   A(14,13,15)           125.4048         estimate D2E/DX2                !
 ! A31   A(12,15,13)           107.1977         estimate D2E/DX2                !
 ! A32   A(12,15,18)           122.4915         estimate D2E/DX2                !
 ! A33   A(13,15,18)           130.3106         estimate D2E/DX2                !
 ! A34   A(12,16,17)           120.4915         estimate D2E/DX2                !
 ! A35   A(12,16,20)           119.0802         estimate D2E/DX2                !
 ! A36   A(17,16,20)           120.4278         estimate D2E/DX2                !
 ! A37   A(15,18,19)           121.2967         estimate D2E/DX2                !
 ! A38   A(15,18,22)           117.5164         estimate D2E/DX2                !
 ! A39   A(19,18,22)           121.1866         estimate D2E/DX2                !
 ! A40   A(16,20,21)           119.5178         estimate D2E/DX2                !
 ! A41   A(16,20,22)           121.2351         estimate D2E/DX2                !
 ! A42   A(21,20,22)           119.2461         estimate D2E/DX2                !
 ! A43   A(18,22,20)           121.0968         estimate D2E/DX2                !
 ! A44   A(18,22,23)           119.4026         estimate D2E/DX2                !
 ! A45   A(20,22,23)           119.5002         estimate D2E/DX2                !
 ! A46   A(4,24,26)            115.5837         estimate D2E/DX2                !
 ! A47   A(24,26,27)           105.5016         estimate D2E/DX2                !
 ! A48   A(24,26,28)           110.4092         estimate D2E/DX2                !
 ! A49   A(24,26,29)           109.7796         estimate D2E/DX2                !
 ! A50   A(27,26,28)           110.8694         estimate D2E/DX2                !
 ! A51   A(27,26,29)           110.6077         estimate D2E/DX2                !
 ! A52   A(28,26,29)           109.6091         estimate D2E/DX2                !
 ! A53   A(1,30,31)            115.7299         estimate D2E/DX2                !
 ! A54   A(1,30,34)            121.6036         estimate D2E/DX2                !
 ! A55   A(31,30,34)           122.6661         estimate D2E/DX2                !
 ! A56   A(30,31,32)           116.994          estimate D2E/DX2                !
 ! A57   A(30,31,33)           120.1837         estimate D2E/DX2                !
 ! A58   A(32,31,33)           122.8222         estimate D2E/DX2                !
 ! A59   A(31,32,35)           121.7021         estimate D2E/DX2                !
 ! A60   A(31,32,36)           120.0743         estimate D2E/DX2                !
 ! A61   A(35,32,36)           118.2232         estimate D2E/DX2                !
 ! A62   A(31,33,37)           110.7538         estimate D2E/DX2                !
 ! A63   A(31,33,38)           111.7655         estimate D2E/DX2                !
 ! A64   A(31,33,39)           111.8284         estimate D2E/DX2                !
 ! A65   A(37,33,38)           107.555          estimate D2E/DX2                !
 ! A66   A(37,33,39)           107.4571         estimate D2E/DX2                !
 ! A67   A(38,33,39)           107.256          estimate D2E/DX2                !
 ! D1    D(25,1,2,3)          -127.055          estimate D2E/DX2                !
 ! D2    D(25,1,2,4)           115.3947         estimate D2E/DX2                !
 ! D3    D(25,1,2,6)            -9.6913         estimate D2E/DX2                !
 ! D4    D(30,1,2,3)            48.4007         estimate D2E/DX2                !
 ! D5    D(30,1,2,4)           -69.1496         estimate D2E/DX2                !
 ! D6    D(30,1,2,6)           165.7645         estimate D2E/DX2                !
 ! D7    D(2,1,30,31)         -179.1405         estimate D2E/DX2                !
 ! D8    D(2,1,30,34)            1.112          estimate D2E/DX2                !
 ! D9    D(25,1,30,31)          -3.8639         estimate D2E/DX2                !
 ! D10   D(25,1,30,34)         176.3886         estimate D2E/DX2                !
 ! D11   D(1,2,4,5)            168.1583         estimate D2E/DX2                !
 ! D12   D(1,2,4,24)           -14.165          estimate D2E/DX2                !
 ! D13   D(3,2,4,5)             50.33           estimate D2E/DX2                !
 ! D14   D(3,2,4,24)          -131.9933         estimate D2E/DX2                !
 ! D15   D(6,2,4,5)            -65.2183         estimate D2E/DX2                !
 ! D16   D(6,2,4,24)           112.4584         estimate D2E/DX2                !
 ! D17   D(1,2,6,7)           -177.9941         estimate D2E/DX2                !
 ! D18   D(1,2,6,8)            -63.735          estimate D2E/DX2                !
 ! D19   D(1,2,6,9)             58.0506         estimate D2E/DX2                !
 ! D20   D(3,2,6,7)            -60.1085         estimate D2E/DX2                !
 ! D21   D(3,2,6,8)             54.1506         estimate D2E/DX2                !
 ! D22   D(3,2,6,9)            175.9362         estimate D2E/DX2                !
 ! D23   D(4,2,6,7)             55.7043         estimate D2E/DX2                !
 ! D24   D(4,2,6,8)            169.9634         estimate D2E/DX2                !
 ! D25   D(4,2,6,9)            -68.251          estimate D2E/DX2                !
 ! D26   D(2,4,24,26)         -175.2559         estimate D2E/DX2                !
 ! D27   D(5,4,24,26)            2.4021         estimate D2E/DX2                !
 ! D28   D(2,6,9,10)           -93.415          estimate D2E/DX2                !
 ! D29   D(2,6,9,12)            85.7122         estimate D2E/DX2                !
 ! D30   D(7,6,9,10)           144.5507         estimate D2E/DX2                !
 ! D31   D(7,6,9,12)           -36.3221         estimate D2E/DX2                !
 ! D32   D(8,6,9,10)            25.8148         estimate D2E/DX2                !
 ! D33   D(8,6,9,12)          -155.058          estimate D2E/DX2                !
 ! D34   D(6,9,10,11)           -1.8966         estimate D2E/DX2                !
 ! D35   D(6,9,10,13)          178.8406         estimate D2E/DX2                !
 ! D36   D(12,9,10,11)         178.8189         estimate D2E/DX2                !
 ! D37   D(12,9,10,13)          -0.4439         estimate D2E/DX2                !
 ! D38   D(6,9,12,15)         -179.2265         estimate D2E/DX2                !
 ! D39   D(6,9,12,16)            1.8333         estimate D2E/DX2                !
 ! D40   D(10,9,12,15)           0.0359         estimate D2E/DX2                !
 ! D41   D(10,9,12,16)        -178.9043         estimate D2E/DX2                !
 ! D42   D(9,10,13,14)         176.1204         estimate D2E/DX2                !
 ! D43   D(9,10,13,15)           0.7026         estimate D2E/DX2                !
 ! D44   D(11,10,13,14)         -3.2171         estimate D2E/DX2                !
 ! D45   D(11,10,13,15)       -178.6349         estimate D2E/DX2                !
 ! D46   D(9,12,15,13)           0.3785         estimate D2E/DX2                !
 ! D47   D(9,12,15,18)        -179.4726         estimate D2E/DX2                !
 ! D48   D(16,12,15,13)        179.5131         estimate D2E/DX2                !
 ! D49   D(16,12,15,18)         -0.3379         estimate D2E/DX2                !
 ! D50   D(9,12,16,17)          -1.1117         estimate D2E/DX2                !
 ! D51   D(9,12,16,20)         179.1598         estimate D2E/DX2                !
 ! D52   D(15,12,16,17)       -179.9589         estimate D2E/DX2                !
 ! D53   D(15,12,16,20)          0.3126         estimate D2E/DX2                !
 ! D54   D(10,13,15,12)         -0.6562         estimate D2E/DX2                !
 ! D55   D(10,13,15,18)        179.1791         estimate D2E/DX2                !
 ! D56   D(14,13,15,12)       -176.0646         estimate D2E/DX2                !
 ! D57   D(14,13,15,18)          3.7707         estimate D2E/DX2                !
 ! D58   D(12,15,18,19)        179.9252         estimate D2E/DX2                !
 ! D59   D(12,15,18,22)          0.1236         estimate D2E/DX2                !
 ! D60   D(13,15,18,19)          0.1117         estimate D2E/DX2                !
 ! D61   D(13,15,18,22)       -179.6898         estimate D2E/DX2                !
 ! D62   D(12,16,20,21)       -179.717          estimate D2E/DX2                !
 ! D63   D(12,16,20,22)         -0.0908         estimate D2E/DX2                !
 ! D64   D(17,16,20,21)          0.5544         estimate D2E/DX2                !
 ! D65   D(17,16,20,22)       -179.8195         estimate D2E/DX2                !
 ! D66   D(15,18,22,20)          0.1108         estimate D2E/DX2                !
 ! D67   D(15,18,22,23)        179.8487         estimate D2E/DX2                !
 ! D68   D(19,18,22,20)       -179.691          estimate D2E/DX2                !
 ! D69   D(19,18,22,23)          0.0469         estimate D2E/DX2                !
 ! D70   D(16,20,22,18)         -0.1288         estimate D2E/DX2                !
 ! D71   D(16,20,22,23)       -179.8665         estimate D2E/DX2                !
 ! D72   D(21,20,22,18)        179.4983         estimate D2E/DX2                !
 ! D73   D(21,20,22,23)         -0.2393         estimate D2E/DX2                !
 ! D74   D(4,24,26,27)        -174.8917         estimate D2E/DX2                !
 ! D75   D(4,24,26,28)         -55.0473         estimate D2E/DX2                !
 ! D76   D(4,24,26,29)          65.9058         estimate D2E/DX2                !
 ! D77   D(1,30,31,32)         179.8603         estimate D2E/DX2                !
 ! D78   D(1,30,31,33)          -0.2099         estimate D2E/DX2                !
 ! D79   D(34,30,31,32)         -0.3952         estimate D2E/DX2                !
 ! D80   D(34,30,31,33)        179.5346         estimate D2E/DX2                !
 ! D81   D(30,31,32,35)        179.8175         estimate D2E/DX2                !
 ! D82   D(30,31,32,36)          0.0704         estimate D2E/DX2                !
 ! D83   D(33,31,32,35)         -0.1103         estimate D2E/DX2                !
 ! D84   D(33,31,32,36)       -179.8574         estimate D2E/DX2                !
 ! D85   D(30,31,33,37)       -179.7323         estimate D2E/DX2                !
 ! D86   D(30,31,33,38)        -59.824          estimate D2E/DX2                !
 ! D87   D(30,31,33,39)         60.4416         estimate D2E/DX2                !
 ! D88   D(32,31,33,37)          0.1933         estimate D2E/DX2                !
 ! D89   D(32,31,33,38)        120.1016         estimate D2E/DX2                !
 ! D90   D(32,31,33,39)       -119.6328         estimate D2E/DX2                !
 --------------------------------------------------------------------------------
 Trust Radius=3.00D-01 FncErr=1.00D-07 GrdErr=1.00D-06
 Number of steps in this run=    207 maximum allowed number of steps=    234.
 GradGradGradGradGradGradGradGradGradGradGradGradGradGradGradGradGradGrad

 Leave Link  103 at Wed Feb 07 22:50:26 2024, MaxMem=    33554432 cpu:         0.0
 (Enter C:\G09W\l202.exe)
                          Input orientation:                          
 ---------------------------------------------------------------------
 Center     Atomic      Atomic             Coordinates (Angstroms)
 Number     Number       Type             X           Y           Z
 ---------------------------------------------------------------------
      1          7           0        1.890419    0.435187    0.004676
      2          6           0        1.021634    1.125700   -0.928079
      3          1           0        1.658124    1.693337   -1.613311
      4          6           0        0.108418    2.125905   -0.234262
      5          8           0       -0.543943    2.953338   -0.833230
      6          6           0        0.175600    0.148387   -1.807869
      7          1           0       -0.416021    0.759422   -2.498837
      8          1           0        0.900472   -0.411036   -2.407216
      9          6           0       -0.702434   -0.795357   -1.039757
     10          6           0       -0.366464   -2.070650   -0.654727
     11          1           0        0.541619   -2.626743   -0.845728
     12          6           0       -2.040709   -0.563216   -0.541933
     13          7           0       -1.403204   -2.642950    0.057898
     14          1           0       -1.420137   -3.590942    0.399804
     15          6           0       -2.449031   -1.745942    0.136276
     16          6           0       -2.942003    0.515967   -0.616015
     17          1           0       -2.662924    1.432946   -1.126586
     18          6           0       -3.706570   -1.872183    0.735926
     19          1           0       -3.998846   -2.785464    1.248209
     20          6           0       -4.192503    0.393834   -0.021512
     21          1           0       -4.895433    1.220643   -0.078366
     22          6           0       -4.571173   -0.787531    0.649011
     23          1           0       -5.556724   -0.853293    1.101902
     24          8           0        0.065134    1.960778    1.104458
     25          1           0        1.762560   -0.559679    0.106126
     26          6           0       -0.864094    2.808902    1.806125
     27          1           0       -0.699352    2.608295    2.864954
     28          1           0       -0.671346    3.858649    1.574432
     29          1           0       -1.887255    2.552194    1.520654
     30          6           0        2.903775    1.089382    0.648653
     31          6           0        3.743800    0.244666    1.577126
     32          6           0        4.744169    0.858614    2.218070
     33          6           0        3.439062   -1.224048    1.751713
     34          8           0        3.106100    2.291158    0.478565
     35          1           0        5.394205    0.324993    2.906004
     36          1           0        4.921877    1.917279    2.061011
     37          1           0        4.135978   -1.683101    2.458680
     38          1           0        2.423057   -1.386294    2.135507
     39          1           0        3.521111   -1.773816    0.803901
 ---------------------------------------------------------------------
                    Distance matrix (angstroms):
                    1          2          3          4          5
     1  N    0.000000
     2  C    1.449699   0.000000
     3  H    2.062713   1.094017   0.000000
     4  C    2.468025   1.521761   2.119075   0.000000
     5  O    3.601290   2.408379   2.654285   1.212016   0.000000
     6  C    2.511609   1.563632   2.150023   2.528108   3.055391
     7  H    3.419411   2.160623   2.440990   2.696407   2.757513
     8  H    2.741042   2.136372   2.373333   3.432950   3.985320
     9  C    3.054172   2.583668   3.477757   3.136889   3.757724
    10  C    3.436212   3.495453   4.380118   4.244217   5.030290
    11  H    3.452226   3.783917   4.527566   4.811363   5.684708
    12  C    4.092598   3.518450   4.463323   3.456122   3.832925
    13  N    4.508405   4.588541   5.564895   5.011221   5.731569
    14  H    5.227391   5.474690   6.438317   5.951543   6.716821
    15  C    4.858546   4.628682   5.635461   4.655002   5.162609
    16  C    4.872790   4.022384   4.852007   3.470260   3.426172
    17  H    4.796687   3.702671   4.356164   2.992786   2.624449
    18  C    6.097948   5.840559   6.856514   5.610713   5.979140
    19  H    6.826596   6.725969   7.762040   6.571825   7.014456
    20  C    6.083119   5.342726   6.200997   4.641471   4.530114
    21  H    6.831663   5.978521   6.747489   5.087468   4.744209
    22  C    6.607751   6.117774   7.076507   5.582728   5.692954
    23  H    7.637017   7.163242   8.118604   6.538715   6.585070
    24  O    2.620804   2.396550   3.161552   1.349560   2.260705
    25  H    1.008166   2.111647   2.836098   3.172445   4.306232
    26  C    4.057965   3.723575   4.393018   2.361238   2.662621
    27  H    4.428375   4.421197   5.142927   3.238878   3.717495
    28  H    4.554873   4.074034   4.502967   2.623320   2.575394
    29  H    4.588107   4.061135   4.809271   2.691498   2.739740
    30  C    1.367321   2.455577   2.651960   3.109331   4.190116
    31  C    2.438015   3.802954   4.077693   4.476180   5.615288
    32  C    3.636247   4.881276   4.989982   5.395382   6.454644
    33  C    2.864174   4.306571   4.796484   5.124399   6.324303
    34  O    2.268717   2.771631   2.613421   3.085697   3.934730
    35  H    4.550425   5.870324   6.021202   6.406567   7.493442
    36  H    3.951562   4.977263   4.919641   5.336776   6.270983
    37  H    3.943579   5.390606   5.841336   6.162929   7.364434
    38  H    2.853408   4.202339   4.911505   4.827929   6.037292
    39  H    2.859652   4.201706   4.618959   5.285081   6.445994
                    6          7          8          9         10
     6  C    0.000000
     7  H    1.095817   0.000000
     8  H    1.094354   1.763950   0.000000
     9  C    1.500531   2.151345   2.141718   0.000000
    10  C    2.558846   3.378240   2.725924   1.373862   0.000000
    11  H    2.959904   3.887925   2.734297   2.222451   1.081820
    12  C    2.649717   2.866785   3.486113   1.446616   2.255699
    13  N    3.710158   4.368931   4.045386   2.260426   1.382097
    14  H    4.626314   5.323160   4.834914   3.225326   2.129214
    15  C    3.775827   4.165789   4.412538   2.310252   2.251268
    16  C    3.357839   3.159885   4.339626   2.629600   3.650409
    17  H    3.189272   2.717587   4.211659   2.969241   4.215633
    18  C    5.062098   5.311944   5.765339   3.652046   3.623481
    19  H    5.947528   6.280383   6.557694   4.479023   4.162490
    20  C    4.725636   4.531292   5.681355   3.825125   4.594912
    21  H    5.464091   5.112390   6.455884   4.750765   5.628176
    22  C    5.426238   5.437582   6.278628   4.221272   4.585379
    23  H    6.506125   6.480200   7.362396   5.306052   5.613065
    24  O    3.431998   3.828642   4.319160   3.575346   4.419663
    25  H    2.585184   3.643086   2.661237   2.728514   2.719315
    26  C    4.606545   4.788928   5.588733   4.595200   5.487573
    27  H    5.352753   5.680569   6.282641   5.179925   5.864426
    28  H    5.091495   5.124638   6.046019   5.338045   6.341821
    29  H    4.594858   4.640568   5.655114   4.377854   5.330645
    30  C    3.789843   4.586569   3.950040   4.405419   4.730652
    31  C    4.919300   5.846585   4.938567   5.262958   5.218824
    32  C    6.130614   6.991896   6.146486   6.558547   6.553786
    33  C    5.020397   6.071490   4.939850   5.012790   4.581453
    34  O    4.290347   4.859678   4.527072   5.131940   5.689325
    35  H    7.034602   7.947312   6.997548   7.348008   7.183538
    36  H    6.373723   7.115195   6.446534   6.971802   7.158586
    37  H    6.102653   7.159859   5.980267   6.036338   5.487757
    38  H    4.791296   5.843082   4.889348   4.494463   4.004395
    39  H    4.659254   5.729431   4.363048   4.711135   4.162805
                   11         12         13         14         15
    11  H    0.000000
    12  C    3.319466   0.000000
    13  N    2.144560   2.256436   0.000000
    14  H    2.515853   3.230960   1.007906   0.000000
    15  C    3.268659   1.423213   1.380044   2.128872   0.000000
    16  C    4.697341   1.407997   3.577823   4.496072   2.434172
    17  H    5.179677   2.171090   4.427508   5.395724   3.427229
    18  C    4.595443   2.474149   2.521765   2.880084   1.398900
    19  H    5.002558   3.460823   2.859110   2.831665   2.172309
    20  C    5.675837   2.411846   4.124143   4.872572   2.764640
    21  H    6.704682   3.398014   5.209758   5.954635   3.851179
    22  C    5.635387   2.805693   3.718605   4.224955   2.384310
    23  H    6.642904   3.892133   4.641610   5.009892   3.374465
    24  O    5.007556   3.676374   4.944251   5.790005   4.582377
    25  H    2.582533   3.858088   3.790040   4.405038   4.375571
    26  C    6.209234   4.274223   5.750620   6.576087   5.103629
    27  H    6.535655   4.844027   5.995877   6.710219   5.428300
    28  H    7.027714   5.089896   6.716121   7.578710   6.053090
    29  H    6.190362   3.739464   5.418808   6.261998   4.550392
    30  C    4.650004   5.347569   5.729691   6.376800   6.078991
    31  C    4.936515   6.213182   6.094098   6.539436   6.662562
    32  C    6.260670   7.461487   7.397127   7.816860   7.928411
    33  C    4.136355   5.977073   5.322577   5.571504   6.127940
    34  O    5.702286   5.973149   6.697477   7.422407   6.875668
    35  H    6.807043   8.243490   7.945135   8.249294   8.571845
    36  H    6.948664   7.836183   8.050764   8.562783   8.453051
    37  H    4.972825   6.957678   6.112904   6.224889   6.982825
    38  H    3.737149   5.269853   4.531657   4.758495   5.278590
    39  H    3.510860   5.848988   5.055768   5.280263   6.007420
                   16         17         18         19         20
    16  C    0.000000
    17  H    1.086010   0.000000
    18  C    2.848784   3.934721   0.000000
    19  H    3.935949   5.021884   1.087171   0.000000
    20  C    1.390000   2.154195   2.438171   3.428940   0.000000
    21  H    2.145116   2.475466   3.412043   4.314228   1.086718
    22  C    2.439999   3.424132   1.389807   2.162945   1.410183
    23  H    3.415096   4.308959   2.143629   2.486297   2.162980
    24  O    3.753715   3.563490   5.390098   6.250073   4.674462
    25  H    4.879694   5.007498   5.659567   6.281104   6.032267
    26  C    3.929633   3.705380   5.580103   6.436992   4.500124
    27  H    4.639447   4.601027   5.800931   6.526344   5.043573
    28  H    4.596462   4.140763   6.538969   7.437938   5.191390
    29  H    3.134337   2.976955   4.847764   5.746620   3.514394
    30  C    6.008437   5.853004   7.243973   7.938519   7.161709
    31  C    7.041551   7.054657   7.790808   8.320964   8.097086
    32  C    8.199188   8.147491   9.003832   9.521567   9.224741
    33  C    7.025082   7.251100   7.246513   7.616693   8.000165
    34  O    6.397574   6.049353   7.988248   8.766111   7.557746
    35  H    9.051710   9.077812   9.610460  10.032579  10.023975
    36  H    8.424414   8.241635   9.516615  10.117101   9.472576
    37  H    8.024180   8.293910   8.031761   8.297940   8.934685
    38  H    6.322447   6.667576   6.306127   6.632180   7.182424
    39  H    7.002222   7.228581   7.228670   7.600697   8.054803
                   21         22         23         24         25
    21  H    0.000000
    22  C    2.160320   0.000000
    23  H    2.476196   1.086621   0.000000
    24  O    5.153067   5.408879   6.286835   0.000000
    25  H    6.894378   6.361038   7.392543   3.198534   0.000000
    26  C    4.724994   5.292984   5.994029   1.440526   4.597460
    27  H    5.309972   5.606517   6.219727   2.025602   4.869106
    28  H    5.247259   6.136126   6.803867   2.089304   5.253707
    29  H    3.657735   4.372292   5.023714   2.082022   5.000579
    30  C    7.834120   7.706987   8.692495   3.004159   2.077525
    31  C    8.850397   8.430042   9.377158   4.086690   2.595404
    32  C    9.915977   9.588917  10.501659   4.934396   3.919420
    33  C    8.876345   8.097553   9.026842   4.684596   2.441311
    34  O    8.092015   8.273324   9.236917   3.122237   3.173497
    35  H   10.751061  10.278156  11.160914   5.858358   4.670204
    36  H   10.071832   9.971346  10.881040   4.950236   4.465218
    37  H    9.820118   8.938200   9.822316   5.628813   3.525578
    38  H    8.078221   7.175475   8.064077   4.222055   2.288653
    39  H    8.976825   8.153638   9.129253   5.097185   2.248004
                   26         27         28         29         30
    26  C    0.000000
    27  H    1.090184   0.000000
    28  H    1.092155   1.797113   0.000000
    29  H    1.092818   1.794827   1.785540   0.000000
    30  C    4.300387   4.494621   4.615994   5.084700   0.000000
    31  C    5.278298   5.194886   5.705646   6.085775   1.510380
    32  C    5.951969   5.754282   6.224330   6.879708   2.429686
    33  C    5.897863   5.749141   6.539166   6.533226   2.618249
    34  O    4.218165   4.502987   4.234035   5.107610   1.230500
    35  H    6.822452   6.507426   7.144979   7.739463   3.447051
    36  H    5.859813   5.720318   5.940523   6.859984   2.598634
    37  H    6.753120   6.477773   7.389401   7.422732   3.532871
    38  H    5.339805   5.122330   6.115518   5.870990   2.927592
    39  H    6.421509   6.423639   7.063644   6.962651   2.933105
                   31         32         33         34         35
    31  C    0.000000
    32  C    1.337340   0.000000
    33  C    1.510122   2.501654   0.000000
    34  O    2.408656   2.785916   3.753457   0.000000
    35  H    2.120426   1.086532   2.748545   3.872168   0.000000
    36  H    2.102295   1.084906   3.487455   2.437409   1.863460
    37  H    2.155743   2.624519   1.093720   4.558096   2.411571
    38  H    2.171677   3.230168   1.098129   4.090923   3.514241
    39  H    2.172956   3.228843   1.098783   4.099035   3.511740
                   36         37         38         39
    36  H    0.000000
    37  H    3.706550   0.000000
    38  H    4.142855   1.768229   0.000000
    39  H    4.143266   1.767649   1.768918   0.000000
 Stoichiometry    C16H18N2O3
 Framework group  C1[X(C16H18N2O3)]
 Deg. of freedom   111
 Full point group                 C1      NOp   1
 Largest Abelian subgroup         C1      NOp   1
 Largest concise Abelian subgroup C1      NOp   1
                         Standard orientation:                         
 ---------------------------------------------------------------------
 Center     Atomic      Atomic             Coordinates (Angstroms)
 Number     Number       Type             X           Y           Z
 ---------------------------------------------------------------------
      1          7           0       -1.842719   -0.293622    0.587428
      2          6           0       -1.025168    0.645618    1.329767
      3          1           0       -1.658034    1.097250    2.099430
      4          6           0       -0.508372    1.778351    0.454785
      5          8           0        0.014056    2.775919    0.903015
      6          6           0        0.165332   -0.041756    2.074867
      7          1           0        0.697204    0.738426    2.630964
      8          1           0       -0.293581   -0.709947    2.810074
      9          6           0        1.106463   -0.807858    1.192285
     10          6           0        1.030188   -2.150663    0.912014
     11          1           0        0.327925   -2.887721    1.277949
     12          6           0        2.247813   -0.306886    0.458088
     13          7           0        2.042373   -2.515567    0.044536
     14          1           0        2.231477   -3.455644   -0.265900
     15          6           0        2.812457   -1.407684   -0.245443
     16          6           0        2.860781    0.954996    0.338170
     17          1           0        2.456345    1.816090    0.861970
     18          6           0        3.946502   -1.280421   -1.054557
     19          1           0        4.362380   -2.134979   -1.582495
     20          6           0        3.987951    1.084974   -0.464758
     21          1           0        4.469454    2.054654   -0.558739
     22          6           0        4.525181   -0.020857   -1.155509
     23          1           0        5.408739    0.112284   -1.773850
     24          8           0       -0.647882    1.531828   -0.864713
     25          1           0       -1.496545   -1.235995    0.495267
     26          6           0       -0.080283    2.520234   -1.745622
     27          1           0       -0.363949    2.211016   -2.751813
     28          1           0       -0.480292    3.510104   -1.515507
     29          1           0        1.007228    2.530153   -1.638517
     30          6           0       -3.076146    0.058403    0.113820
     31          6           0       -3.828190   -1.023378   -0.624710
     32          6           0       -5.038963   -0.707142   -1.096412
     33          6           0       -3.210332   -2.389373   -0.805754
     34          8           0       -3.532249    1.189045    0.280403
     35          1           0       -5.644917   -1.425633   -1.641519
     36          1           0       -5.439060    0.289502   -0.942651
     37          1           0       -3.882288   -3.047836   -1.363539
     38          1           0       -2.262918   -2.337732   -1.358589
     39          1           0       -2.999444   -2.873367    0.157885
 ---------------------------------------------------------------------
 Rotational constants (GHZ):      0.5161568      0.2095789      0.1787622
 Leave Link  202 at Wed Feb 07 22:50:26 2024, MaxMem=    33554432 cpu:         0.0
 (Enter C:\G09W\l301.exe)
 Standard basis: 6-31G(d,p) (6D, 7F)
 Ernie: Thresh=  0.10000D-02 Tol=  0.10000D-05 Strict=F.
 There are   405 symmetry adapted cartesian basis functions of A   symmetry.
 There are   405 symmetry adapted basis functions of A   symmetry.
   405 basis functions,   714 primitive gaussians,   405 cartesian basis functions
    76 alpha electrons       76 beta electrons
       nuclear repulsion energy      1688.1605912724 Hartrees.
 IExCor=  402 DFT=T Ex+Corr=B3LYP ExCW=0 ScaHFX=  0.200000
 ScaDFX=  0.800000  0.720000  1.000000  0.810000 ScalE2=  1.000000  1.000000
 IRadAn=      0 IRanWt=     -1 IRanGd=            0 ICorTp=0 IEmpDi=  4
 NAtoms=   39 NActive=   39 NUniq=   39 SFac= 1.00D+00 NAtFMM=   60 NAOKFM=F Big=F
 Integral buffers will be    262144 words long.
 Raffenetti 2 integral format.
 Two-electron integral symmetry is turned on.
 Leave Link  301 at Wed Feb 07 22:50:26 2024, MaxMem=    33554432 cpu:         0.0
 (Enter C:\G09W\l302.exe)
 NPDir=0 NMtPBC=     1 NCelOv=     1 NCel=       1 NClECP=     1 NCelD=      1
         NCelK=      1 NCelE2=     1 NClLst=     1 CellRange=     0.0.
 One-electron integrals computed using PRISM.
 NBasis=   405 RedAO= T EigKep=  3.64D-04  NBF=   405
 NBsUse=   405 1.00D-06 EigRej= -1.00D+00 NBFU=   405
 Precomputing XC quadrature grid using
 IXCGrd= 4 IRadAn=           0 IRanWt=          -1 IRanGd=           0 AccXCQ= 0.00D+00.
 Generated NRdTot=       0 NPtTot=           0 NUsed=           0 NTot=          16
 NSgBfM=   394   394   396   396   396 MxSgAt=    39 MxSgA2=    39.
 Leave Link  302 at Wed Feb 07 22:50:28 2024, MaxMem=    33554432 cpu:         2.0
 (Enter C:\G09W\l303.exe)
 DipDrv:  MaxL=1.
 Leave Link  303 at Wed Feb 07 22:50:28 2024, MaxMem=    33554432 cpu:         0.0
 (Enter C:\G09W\l401.exe)
 ExpMin= 1.61D-01 ExpMax= 5.48D+03 ExpMxC= 8.25D+02 IAcc=1 IRadAn=         1 AccDes= 0.00D+00
 Harris functional with IExCor=  402 and IRadAn=       1 diagonalized for initial guess.
 HarFok:  IExCor=  402 AccDes= 0.00D+00 IRadAn=         1 IDoV= 1 UseB2=F ITyADJ=14
 ICtDFT=  3500011 ScaDFX=  1.000000  1.000000  1.000000  1.000000
 FoFCou: FMM=F IPFlag=           0 FMFlag=      100000 FMFlg1=           0
         NFxFlg=           0 DoJE=T BraDBF=F KetDBF=T FulRan=T
         wScrn=  0.000000 ICntrl=     500 IOpCl=  0 I1Cent=   200000004 NGrid=           0
         NMat0=    1 NMatS0=      1 NMatT0=    0 NMatD0=    1 NMtDS0=    0 NMtDT0=    0
 Petite list used in FoFCou.
 Harris En= -955.788310845446    
 JPrj=0 DoOrth=F DoCkMO=F.
 Leave Link  401 at Wed Feb 07 22:50:30 2024, MaxMem=    33554432 cpu:         2.0
 (Enter C:\G09W\l502.exe)
 Closed shell SCF:
 Using DIIS extrapolation, IDIIS=  1040.
 Integral symmetry usage will be decided dynamically.
 IVT=      516292 IEndB=      516292 NGot=    33554432 MDV=    33219211
 LenX=    33219211 LenY=    33054745
 Requested convergence on RMS density matrix=1.00D-08 within 128 cycles.
 Requested convergence on MAX density matrix=1.00D-06.
 Requested convergence on             energy=1.00D-06.
 No special actions if energy rises.
 Fock matrices will be formed incrementally for  20 cycles.
 Integral accuracy reduced to 1.0D-05 until final iterations.

 Cycle   1  Pass 0  IDiag  1:
 FoFJK:  IHMeth= 1 ICntrl=       0 DoSepK=F KAlg= 0 I1Cent=   0 FoldK=F
 IRaf= 720000000 NMat=   1 IRICut=       1 DoRegI=T DoRafI=F ISym2E= 0.
 FoFCou: FMM=F IPFlag=           0 FMFlag=      100000 FMFlg1=           0
         NFxFlg=           0 DoJE=F BraDBF=F KetDBF=F FulRan=T
         wScrn=  0.000000 ICntrl=       0 IOpCl=  0 I1Cent=           0 NGrid=           0
         NMat0=    1 NMatS0=      1 NMatT0=    0 NMatD0=    1 NMtDS0=    0 NMtDT0=    0
 Symmetry not used in FoFCou.
 E= -955.221229170949    
 DIIS: error= 2.64D-02 at cycle   1 NSaved=   1.
 NSaved= 1 IEnMin= 1 EnMin= -955.221229170949     IErMin= 1 ErrMin= 2.64D-02
 ErrMax= 2.64D-02  0.00D+00 EMaxC= 1.00D-01 BMatC= 5.55D-01 BMatP= 5.55D-01
 IDIUse=3 WtCom= 7.36D-01 WtEn= 2.64D-01
 Coeff-Com:  0.100D+01
 Coeff-En:   0.100D+01
 Coeff:      0.100D+01
 Gap=     0.184 Goal=   None    Shift=    0.000
 GapD=    0.184 DampG=1.000 DampE=0.500 DampFc=0.5000 IDamp=-1.
 Damping current iteration by 5.00D-01
 RMSDP=4.70D-03 MaxDP=2.13D-01              OVMax= 2.59D-01

 Cycle   2  Pass 0  IDiag  1:
 RMSU=  2.33D-03    CP:  9.81D-01
 E= -955.385137118351     Delta-E=       -0.163907947402 Rises=F Damp=T
 DIIS: error= 8.48D-03 at cycle   2 NSaved=   2.
 NSaved= 2 IEnMin= 2 EnMin= -955.385137118351     IErMin= 2 ErrMin= 8.48D-03
 ErrMax= 8.48D-03  0.00D+00 EMaxC= 1.00D-01 BMatC= 9.03D-02 BMatP= 5.55D-01
 IDIUse=3 WtCom= 9.15D-01 WtEn= 8.48D-02
 Coeff-Com:  0.201D+00 0.799D+00
 Coeff-En:   0.305D+00 0.695D+00
 Coeff:      0.210D+00 0.790D+00
 Gap=     0.332 Goal=   None    Shift=    0.000
 RMSDP=1.67D-03 MaxDP=1.18D-01 DE=-1.64D-01 OVMax= 2.18D-01

 Cycle   3  Pass 0  IDiag  1:
 RMSU=  1.47D-03    CP:  9.65D-01  6.82D-01
 E= -955.660120618712     Delta-E=       -0.274983500361 Rises=F Damp=F
 DIIS: error= 1.16D-02 at cycle   3 NSaved=   3.
 NSaved= 3 IEnMin= 3 EnMin= -955.660120618712     IErMin= 2 ErrMin= 8.48D-03
 ErrMax= 1.16D-02  0.00D+00 EMaxC= 1.00D-01 BMatC= 1.10D-01 BMatP= 9.03D-02
 IDIUse=2 WtCom= 0.00D+00 WtEn= 1.00D+00
 Coeff-En:   0.000D+00 0.000D+00 0.100D+01
 Coeff:      0.000D+00 0.000D+00 0.100D+01
 Gap=     0.186 Goal=   None    Shift=    0.000
 RMSDP=2.71D-03 MaxDP=1.85D-01 DE=-2.75D-01 OVMax= 3.01D-01

 Cycle   4  Pass 0  IDiag  1:
 RMSU=  1.46D-03    CP:  9.74D-01  1.23D+00 -2.73D-01
 E= -955.189085312126     Delta-E=        0.471035306586 Rises=F Damp=F
 DIIS: error= 3.21D-02 at cycle   4 NSaved=   4.
 NSaved= 4 IEnMin= 3 EnMin= -955.660120618712     IErMin= 2 ErrMin= 8.48D-03
 ErrMax= 3.21D-02  0.00D+00 EMaxC= 1.00D-01 BMatC= 6.94D-01 BMatP= 9.03D-02
 IDIUse=2 WtCom= 0.00D+00 WtEn= 1.00D+00
 Coeff-En:   0.000D+00 0.000D+00 0.801D+00 0.199D+00
 Coeff:      0.000D+00 0.000D+00 0.801D+00 0.199D+00
 Gap=     0.197 Goal=   None    Shift=    0.000
 RMSDP=1.50D-03 MaxDP=1.18D-01 DE= 4.71D-01 OVMax= 1.25D-01

 Cycle   5  Pass 0  IDiag  1:
 RMSU=  2.47D-04    CP:  9.71D-01  8.59D-01  3.73D-01  5.04D-01
 E= -955.713534993925     Delta-E=       -0.524449681800 Rises=F Damp=F
 DIIS: error= 8.53D-03 at cycle   5 NSaved=   5.
 NSaved= 5 IEnMin= 5 EnMin= -955.713534993925     IErMin= 2 ErrMin= 8.48D-03
 ErrMax= 8.53D-03  0.00D+00 EMaxC= 1.00D-01 BMatC= 4.97D-02 BMatP= 9.03D-02
 IDIUse=3 WtCom= 9.15D-01 WtEn= 8.53D-02
 Coeff-Com: -0.254D-02 0.383D-01 0.338D+00-0.627D-01 0.689D+00
 Coeff-En:   0.000D+00 0.000D+00 0.350D+00 0.000D+00 0.650D+00
 Coeff:     -0.232D-02 0.350D-01 0.339D+00-0.573D-01 0.685D+00
 Gap=     0.184 Goal=   None    Shift=    0.000
 RMSDP=5.33D-04 MaxDP=3.02D-02 DE=-5.24D-01 OVMax= 4.62D-02

 Cycle   6  Pass 0  IDiag  1:
 RMSU=  1.04D-04    CP:  9.69D-01  7.72D-01  6.25D-01  3.06D-01  6.18D-01
 E= -955.755016402228     Delta-E=       -0.041481408302 Rises=F Damp=F
 DIIS: error= 1.16D-03 at cycle   6 NSaved=   6.
 NSaved= 6 IEnMin= 6 EnMin= -955.755016402228     IErMin= 6 ErrMin= 1.16D-03
 ErrMax= 1.16D-03  0.00D+00 EMaxC= 1.00D-01 BMatC= 6.57D-04 BMatP= 4.97D-02
 IDIUse=3 WtCom= 9.88D-01 WtEn= 1.16D-02
 Coeff-Com: -0.658D-02 0.239D-01 0.169D+00-0.640D-01 0.462D+00 0.416D+00
 Coeff-En:   0.000D+00 0.000D+00 0.000D+00 0.000D+00 0.000D+00 0.100D+01
 Coeff:     -0.650D-02 0.236D-01 0.167D+00-0.633D-01 0.457D+00 0.423D+00
 Gap=     0.185 Goal=   None    Shift=    0.000
 RMSDP=7.24D-05 MaxDP=3.05D-03 DE=-4.15D-02 OVMax= 1.17D-02

 Cycle   7  Pass 0  IDiag  1:
 RMSU=  2.51D-05    CP:  9.69D-01  7.81D-01  6.17D-01  3.04D-01  7.51D-01
                    CP:  4.72D-01
 E= -955.755639339833     Delta-E=       -0.000622937606 Rises=F Damp=F
 DIIS: error= 1.70D-04 at cycle   7 NSaved=   7.
 NSaved= 7 IEnMin= 7 EnMin= -955.755639339833     IErMin= 7 ErrMin= 1.70D-04
 ErrMax= 1.70D-04  0.00D+00 EMaxC= 1.00D-01 BMatC= 2.34D-05 BMatP= 6.57D-04
 IDIUse=3 WtCom= 9.98D-01 WtEn= 1.70D-03
 Coeff-Com: -0.219D-02 0.639D-02 0.555D-01-0.236D-01 0.157D+00 0.197D+00
 Coeff-Com:  0.610D+00
 Coeff-En:   0.000D+00 0.000D+00 0.000D+00 0.000D+00 0.000D+00 0.000D+00
 Coeff-En:   0.100D+01
 Coeff:     -0.219D-02 0.638D-02 0.554D-01-0.236D-01 0.157D+00 0.196D+00
 Coeff:      0.611D+00
 Gap=     0.185 Goal=   None    Shift=    0.000
 RMSDP=1.45D-05 MaxDP=9.02D-04 DE=-6.23D-04 OVMax= 1.59D-03

 Cycle   8  Pass 0  IDiag  1:
 RMSU=  9.53D-06    CP:  9.69D-01  7.79D-01  6.19D-01  3.04D-01  7.39D-01
                    CP:  5.21D-01  6.72D-01
 E= -955.755655938587     Delta-E=       -0.000016598754 Rises=F Damp=F
 DIIS: error= 7.68D-05 at cycle   8 NSaved=   8.
 NSaved= 8 IEnMin= 8 EnMin= -955.755655938587     IErMin= 8 ErrMin= 7.68D-05
 ErrMax= 7.68D-05  0.00D+00 EMaxC= 1.00D-01 BMatC= 5.68D-06 BMatP= 2.34D-05
 IDIUse=1 WtCom= 1.00D+00 WtEn= 0.00D+00
 Coeff-Com: -0.232D-03-0.401D-04 0.132D-01-0.557D-02 0.346D-01 0.676D-01
 Coeff-Com:  0.402D+00 0.489D+00
 Coeff:     -0.232D-03-0.401D-04 0.132D-01-0.557D-02 0.346D-01 0.676D-01
 Coeff:      0.402D+00 0.489D+00
 Gap=     0.185 Goal=   None    Shift=    0.000
 RMSDP=6.28D-06 MaxDP=3.51D-04 DE=-1.66D-05 OVMax= 6.13D-04

 Initial convergence to 1.0D-05 achieved.  Increase integral accuracy.
 Cycle   9  Pass 1  IDiag  1:
 E= -955.755641061753     Delta-E=        0.000014876834 Rises=F Damp=F
 DIIS: error= 4.25D-05 at cycle   1 NSaved=   1.
 NSaved= 1 IEnMin= 1 EnMin= -955.755641061753     IErMin= 1 ErrMin= 4.25D-05
 ErrMax= 4.25D-05  0.00D+00 EMaxC= 1.00D-01 BMatC= 8.99D-07 BMatP= 8.99D-07
 IDIUse=1 WtCom= 1.00D+00 WtEn= 0.00D+00
 Coeff-Com:  0.100D+01
 Coeff:      0.100D+01
 Gap=     0.185 Goal=   None    Shift=    0.000
 RMSDP=6.28D-06 MaxDP=3.51D-04 DE= 1.49D-05 OVMax= 2.91D-04

 Cycle  10  Pass 1  IDiag  1:
 RMSU=  2.88D-05    CP:  1.00D+00
 E= -955.755641408899     Delta-E=       -0.000000347146 Rises=F Damp=F
 DIIS: error= 3.21D-05 at cycle   2 NSaved=   2.
 NSaved= 2 IEnMin= 2 EnMin= -955.755641408899     IErMin= 2 ErrMin= 3.21D-05
 ErrMax= 3.21D-05  0.00D+00 EMaxC= 1.00D-01 BMatC= 6.78D-07 BMatP= 8.99D-07
 IDIUse=1 WtCom= 1.00D+00 WtEn= 0.00D+00
 Coeff-Com:  0.450D+00 0.550D+00
 Coeff:      0.450D+00 0.550D+00
 Gap=     0.185 Goal=   None    Shift=    0.000
 RMSDP=2.87D-06 MaxDP=2.58D-04 DE=-3.47D-07 OVMax= 3.73D-04

 Cycle  11  Pass 1  IDiag  1:
 RMSU=  2.87D-06    CP:  1.00D+00  9.94D-01
 E= -955.755641674433     Delta-E=       -0.000000265534 Rises=F Damp=F
 DIIS: error= 2.64D-05 at cycle   3 NSaved=   3.
 NSaved= 3 IEnMin= 3 EnMin= -955.755641674433     IErMin= 3 ErrMin= 2.64D-05
 ErrMax= 2.64D-05  0.00D+00 EMaxC= 1.00D-01 BMatC= 3.62D-07 BMatP= 6.78D-07
 IDIUse=1 WtCom= 1.00D+00 WtEn= 0.00D+00
 Coeff-Com:  0.134D-01 0.419D+00 0.568D+00
 Coeff:      0.134D-01 0.419D+00 0.568D+00
 Gap=     0.185 Goal=   None    Shift=    0.000
 RMSDP=1.35D-06 MaxDP=1.21D-04 DE=-2.66D-07 OVMax= 1.90D-04

 Cycle  12  Pass 1  IDiag  1:
 RMSU=  5.29D-07    CP:  1.00D+00  1.01D+00  5.82D-01
 E= -955.755641949197     Delta-E=       -0.000000274764 Rises=F Damp=F
 DIIS: error= 3.95D-06 at cycle   4 NSaved=   4.
 NSaved= 4 IEnMin= 4 EnMin= -955.755641949197     IErMin= 4 ErrMin= 3.95D-06
 ErrMax= 3.95D-06  0.00D+00 EMaxC= 1.00D-01 BMatC= 1.64D-08 BMatP= 3.62D-07
 IDIUse=1 WtCom= 1.00D+00 WtEn= 0.00D+00
 Coeff-Com: -0.651D-02 0.239D+00 0.348D+00 0.419D+00
 Coeff:     -0.651D-02 0.239D+00 0.348D+00 0.419D+00
 Gap=     0.185 Goal=   None    Shift=    0.000
 RMSDP=2.94D-07 MaxDP=1.77D-05 DE=-2.75D-07 OVMax= 2.79D-05

 Cycle  13  Pass 1  IDiag  1:
 RMSU=  1.68D-07    CP:  1.00D+00  1.01D+00  5.88D-01  5.45D-01
 E= -955.755641962075     Delta-E=       -0.000000012878 Rises=F Damp=F
 DIIS: error= 8.15D-07 at cycle   5 NSaved=   5.
 NSaved= 5 IEnMin= 5 EnMin= -955.755641962075     IErMin= 5 ErrMin= 8.15D-07
 ErrMax= 8.15D-07  0.00D+00 EMaxC= 1.00D-01 BMatC= 4.20D-10 BMatP= 1.64D-08
 IDIUse=1 WtCom= 1.00D+00 WtEn= 0.00D+00
 Coeff-Com: -0.385D-02 0.103D+00 0.153D+00 0.222D+00 0.526D+00
 Coeff:     -0.385D-02 0.103D+00 0.153D+00 0.222D+00 0.526D+00
 Gap=     0.185 Goal=   None    Shift=    0.000
 RMSDP=7.71D-08 MaxDP=2.42D-06 DE=-1.29D-08 OVMax= 8.19D-06

 Cycle  14  Pass 1  IDiag  1:
 RMSU=  5.78D-08    CP:  1.00D+00  1.01D+00  5.91D-01  5.53D-01  7.02D-01
 E= -955.755641962429     Delta-E=       -0.000000000353 Rises=F Damp=F
 DIIS: error= 3.44D-07 at cycle   6 NSaved=   6.
 NSaved= 6 IEnMin= 6 EnMin= -955.755641962429     IErMin= 6 ErrMin= 3.44D-07
 ErrMax= 3.44D-07  0.00D+00 EMaxC= 1.00D-01 BMatC= 7.03D-11 BMatP= 4.20D-10
 IDIUse=1 WtCom= 1.00D+00 WtEn= 0.00D+00
 Coeff-Com: -0.156D-02 0.319D-01 0.483D-01 0.826D-01 0.316D+00 0.522D+00
 Coeff:     -0.156D-02 0.319D-01 0.483D-01 0.826D-01 0.316D+00 0.522D+00
 Gap=     0.185 Goal=   None    Shift=    0.000
 RMSDP=2.75D-08 MaxDP=1.49D-06 DE=-3.53D-10 OVMax= 2.98D-06

 Cycle  15  Pass 1  IDiag  1:
 RMSU=  2.00D-08    CP:  1.00D+00  1.01D+00  5.90D-01  5.58D-01  7.64D-01
                    CP:  7.41D-01
 E= -955.755641962481     Delta-E=       -0.000000000052 Rises=F Damp=F
 DIIS: error= 1.27D-07 at cycle   7 NSaved=   7.
 NSaved= 7 IEnMin= 7 EnMin= -955.755641962481     IErMin= 7 ErrMin= 1.27D-07
 ErrMax= 1.27D-07  0.00D+00 EMaxC= 1.00D-01 BMatC= 1.19D-11 BMatP= 7.03D-11
 IDIUse=1 WtCom= 1.00D+00 WtEn= 0.00D+00
 Coeff-Com: -0.382D-03 0.505D-02 0.817D-02 0.203D-01 0.120D+00 0.333D+00
 Coeff-Com:  0.513D+00
 Coeff:     -0.382D-03 0.505D-02 0.817D-02 0.203D-01 0.120D+00 0.333D+00
 Coeff:      0.513D+00
 Gap=     0.185 Goal=   None    Shift=    0.000
 RMSDP=9.71D-09 MaxDP=7.48D-07 DE=-5.18D-11 OVMax= 8.63D-07

 SCF Done:  E(RB3LYP) =  -955.755641962     A.U. after   15 cycles
            NFock= 15  Conv=0.97D-08     -V/T= 2.0095
 KE= 9.467990694841D+02 PE=-5.600762625942D+03 EE= 2.010047323223D+03
 Leave Link  502 at Wed Feb 07 22:52:02 2024, MaxMem=    33554432 cpu:        92.0
 (Enter C:\G09W\l601.exe)
 Copying SCF densities to generalized density rwf, IOpCl= 0 IROHF=0.

 **********************************************************************

            Population analysis using the SCF density.

 **********************************************************************

 Orbital symmetries:
       Occupied  (A) (A) (A) (A) (A) (A) (A) (A) (A) (A) (A) (A)
                 (A) (A) (A) (A) (A) (A) (A) (A) (A) (A) (A) (A)
                 (A) (A) (A) (A) (A) (A) (A) (A) (A) (A) (A) (A)
                 (A) (A) (A) (A) (A) (A) (A) (A) (A) (A) (A) (A)
                 (A) (A) (A) (A) (A) (A) (A) (A) (A) (A) (A) (A)
                 (A) (A) (A) (A) (A) (A) (A) (A) (A) (A) (A) (A)
                 (A) (A) (A) (A)
       Virtual   (A) (A) (A) (A) (A) (A) (A) (A) (A) (A) (A) (A)
                 (A) (A) (A) (A) (A) (A) (A) (A) (A) (A) (A) (A)
                 (A) (A) (A) (A) (A) (A) (A) (A) (A) (A) (A) (A)
                 (A) (A) (A) (A) (A) (A) (A) (A) (A) (A) (A) (A)
                 (A) (A) (A) (A) (A) (A) (A) (A) (A) (A) (A) (A)
                 (A) (A) (A) (A) (A) (A) (A) (A) (A) (A) (A) (A)
                 (A) (A) (A) (A) (A) (A) (A) (A) (A) (A) (A) (A)
                 (A) (A) (A) (A) (A) (A) (A) (A) (A) (A) (A) (A)
                 (A) (A) (A) (A) (A) (A) (A) (A) (A) (A) (A) (A)
                 (A) (A) (A) (A) (A) (A) (A) (A) (A) (A) (A) (A)
                 (A) (A) (A) (A) (A) (A) (A) (A) (A) (A) (A) (A)
                 (A) (A) (A) (A) (A) (A) (A) (A) (A) (A) (A) (A)
                 (A) (A) (A) (A) (A) (A) (A) (A) (A) (A) (A) (A)
                 (A) (A) (A) (A) (A) (A) (A) (A) (A) (A) (A) (A)
                 (A) (A) (A) (A) (A) (A) (A) (A) (A) (A) (A) (A)
                 (A) (A) (A) (A) (A) (A) (A) (A) (A) (A) (A) (A)
                 (A) (A) (A) (A) (A) (A) (A) (A) (A) (A) (A) (A)
                 (A) (A) (A) (A) (A) (A) (A) (A) (A) (A) (A) (A)
                 (A) (A) (A) (A) (A) (A) (A) (A) (A) (A) (A) (A)
                 (A) (A) (A) (A) (A) (A) (A) (A) (A) (A) (A) (A)
                 (A) (A) (A) (A) (A) (A) (A) (A) (A) (A) (A) (A)
                 (A) (A) (A) (A) (A) (A) (A) (A) (A) (A) (A) (A)
                 (A) (A) (A) (A) (A) (A) (A) (A) (A) (A) (A) (A)
                 (A) (A) (A) (A) (A) (A) (A) (A) (A) (A) (A) (A)
                 (A) (A) (A) (A) (A) (A) (A) (A) (A) (A) (A) (A)
                 (A) (A) (A) (A) (A) (A) (A) (A) (A) (A) (A) (A)
                 (A) (A) (A) (A) (A) (A) (A) (A) (A) (A) (A) (A)
                 (A) (A) (A) (A) (A)
 The electronic state is 1-A.
 Alpha  occ. eigenvalues --  -19.18305 -19.12677 -19.10100 -14.38699 -14.35532
 Alpha  occ. eigenvalues --  -10.30520 -10.27886 -10.23704 -10.23020 -10.22801
 Alpha  occ. eigenvalues --  -10.22369 -10.20745 -10.20159 -10.19730 -10.19242
 Alpha  occ. eigenvalues --  -10.19194 -10.18799 -10.18750 -10.18512 -10.18481
 Alpha  occ. eigenvalues --  -10.18146  -1.09180  -1.02093  -1.00452  -0.98489
 Alpha  occ. eigenvalues --   -0.92068  -0.83987  -0.81491  -0.80011  -0.76155
 Alpha  occ. eigenvalues --   -0.73663  -0.72862  -0.71254  -0.69585  -0.66377
 Alpha  occ. eigenvalues --   -0.62582  -0.61643  -0.59623  -0.57142  -0.56186
 Alpha  occ. eigenvalues --   -0.54719  -0.53927  -0.51588  -0.48905  -0.48786
 Alpha  occ. eigenvalues --   -0.47770  -0.47476  -0.46819  -0.45036  -0.44063
 Alpha  occ. eigenvalues --   -0.43539  -0.43246  -0.42867  -0.42370  -0.42240
 Alpha  occ. eigenvalues --   -0.41724  -0.40620  -0.39859  -0.39395  -0.38723
 Alpha  occ. eigenvalues --   -0.38117  -0.37435  -0.35775  -0.35411  -0.35149
 Alpha  occ. eigenvalues --   -0.34457  -0.33572  -0.33373  -0.29188  -0.27890
 Alpha  occ. eigenvalues --   -0.27650  -0.25659  -0.24372  -0.24153  -0.22618
 Alpha  occ. eigenvalues --   -0.20800
 Alpha virt. eigenvalues --   -0.02328  -0.01588   0.01407   0.02518   0.05264
 Alpha virt. eigenvalues --    0.06700   0.07635   0.09240   0.10181   0.11431
 Alpha virt. eigenvalues --    0.12075   0.12899   0.13145   0.14229   0.14521
 Alpha virt. eigenvalues --    0.14960   0.15933   0.16516   0.16693   0.17138
 Alpha virt. eigenvalues --    0.17583   0.17889   0.17993   0.18199   0.19064
 Alpha virt. eigenvalues --    0.20117   0.20841   0.22674   0.23697   0.24455
 Alpha virt. eigenvalues --    0.24659   0.26598   0.27724   0.27881   0.31647
 Alpha virt. eigenvalues --    0.32041   0.32907   0.33907   0.35019   0.35267
 Alpha virt. eigenvalues --    0.35534   0.39085   0.40340   0.42104   0.43279
 Alpha virt. eigenvalues --    0.47619   0.49790   0.50366   0.50893   0.51258
 Alpha virt. eigenvalues --    0.51800   0.52207   0.53298   0.53551   0.54044
 Alpha virt. eigenvalues --    0.55239   0.55981   0.56678   0.57387   0.58310
 Alpha virt. eigenvalues --    0.58618   0.59471   0.59976   0.60076   0.60630
 Alpha virt. eigenvalues --    0.61712   0.61979   0.62205   0.62439   0.63251
 Alpha virt. eigenvalues --    0.64845   0.65670   0.66688   0.66920   0.68929
 Alpha virt. eigenvalues --    0.69292   0.69656   0.69892   0.71426   0.72460
 Alpha virt. eigenvalues --    0.74698   0.75344   0.76099   0.77210   0.77308
 Alpha virt. eigenvalues --    0.79272   0.79773   0.79976   0.80434   0.81383
 Alpha virt. eigenvalues --    0.82514   0.82750   0.82854   0.83323   0.83537
 Alpha virt. eigenvalues --    0.84679   0.85282   0.85990   0.86718   0.87409
 Alpha virt. eigenvalues --    0.89060   0.89277   0.89772   0.90053   0.91650
 Alpha virt. eigenvalues --    0.91994   0.92514   0.93231   0.94917   0.95601
 Alpha virt. eigenvalues --    0.96462   0.97261   0.98568   0.99764   1.00353
 Alpha virt. eigenvalues --    1.01628   1.05009   1.06072   1.07389   1.08147
 Alpha virt. eigenvalues --    1.09447   1.10892   1.12036   1.13268   1.14684
 Alpha virt. eigenvalues --    1.15026   1.16270   1.18088   1.19641   1.22777
 Alpha virt. eigenvalues --    1.23258   1.24541   1.24916   1.26925   1.28573
 Alpha virt. eigenvalues --    1.29667   1.31115   1.32240   1.32616   1.33248
 Alpha virt. eigenvalues --    1.34680   1.35773   1.36880   1.38036   1.38717
 Alpha virt. eigenvalues --    1.40765   1.41474   1.41757   1.43226   1.44557
 Alpha virt. eigenvalues --    1.45070   1.46826   1.46970   1.48759   1.51061
 Alpha virt. eigenvalues --    1.52987   1.53672   1.58896   1.59342   1.62466
 Alpha virt. eigenvalues --    1.65349   1.68131   1.70257   1.71298   1.72998
 Alpha virt. eigenvalues --    1.74771   1.76150   1.76950   1.78137   1.79227
 Alpha virt. eigenvalues --    1.79841   1.80218   1.81233   1.82855   1.83237
 Alpha virt. eigenvalues --    1.84576   1.85872   1.87335   1.87438   1.88454
 Alpha virt. eigenvalues --    1.89637   1.89927   1.90754   1.92222   1.92439
 Alpha virt. eigenvalues --    1.93519   1.94551   1.95797   1.96182   1.97242
 Alpha virt. eigenvalues --    1.98683   1.98910   1.99829   2.01132   2.01413
 Alpha virt. eigenvalues --    2.01627   2.02757   2.03128   2.04135   2.04350
 Alpha virt. eigenvalues --    2.05406   2.06173   2.06551   2.07566   2.08276
 Alpha virt. eigenvalues --    2.08699   2.09044   2.10825   2.12386   2.13202
 Alpha virt. eigenvalues --    2.13768   2.15623   2.16551   2.18343   2.18810
 Alpha virt. eigenvalues --    2.20476   2.22943   2.23403   2.25892   2.28004
 Alpha virt. eigenvalues --    2.28382   2.28799   2.31435   2.34001   2.34689
 Alpha virt. eigenvalues --    2.35153   2.37528   2.38117   2.38967   2.39432
 Alpha virt. eigenvalues --    2.40217   2.41298   2.42179   2.43553   2.44131
 Alpha virt. eigenvalues --    2.45375   2.47286   2.48368   2.50441   2.50645
 Alpha virt. eigenvalues --    2.51652   2.51965   2.53186   2.54693   2.54914
 Alpha virt. eigenvalues --    2.55698   2.56008   2.58373   2.58907   2.60283
 Alpha virt. eigenvalues --    2.60869   2.62489   2.63160   2.63764   2.64673
 Alpha virt. eigenvalues --    2.66477   2.68472   2.69181   2.69783   2.70223
 Alpha virt. eigenvalues --    2.71901   2.72059   2.72914   2.73897   2.75334
 Alpha virt. eigenvalues --    2.75888   2.77263   2.79482   2.82806   2.83993
 Alpha virt. eigenvalues --    2.85090   2.85726   2.86130   2.87114   2.90745
 Alpha virt. eigenvalues --    2.91485   2.94355   2.96106   2.97449   2.98650
 Alpha virt. eigenvalues --    3.01245   3.02094   3.06666   3.08905   3.11058
 Alpha virt. eigenvalues --    3.14273   3.17259   3.19042   3.20508   3.21765
 Alpha virt. eigenvalues --    3.23629   3.24646   3.27891   3.30750   3.36552
 Alpha virt. eigenvalues --    3.36922   3.40450   3.41095   3.42173   3.43566
 Alpha virt. eigenvalues --    3.44692   3.47280   3.48457   3.49541   3.57936
 Alpha virt. eigenvalues --    3.61477   3.67728   3.85765   4.03438   4.08334
 Alpha virt. eigenvalues --    4.11424   4.14130   4.15472   4.20152   4.24322
 Alpha virt. eigenvalues --    4.26176   4.31090   4.33955   4.35851   4.42445
 Alpha virt. eigenvalues --    4.46064   4.47510   4.50063   4.55201   4.58757
 Alpha virt. eigenvalues --    4.67164   4.73979   4.80241   4.89746
          Condensed to atoms (all electrons):
               1          2          3          4          5          6
     1  N    7.163753   0.204747  -0.053832  -0.057814   0.002588  -0.033216
     2  C    0.204747   5.055925   0.386727   0.328700  -0.066053   0.331031
     3  H   -0.053832   0.386727   0.575398  -0.043438   0.001215  -0.028135
     4  C   -0.057814   0.328700  -0.043438   4.374598   0.507783  -0.026530
     5  O    0.002588  -0.066053   0.001215   0.507783   8.108965  -0.001136
     6  C   -0.033216   0.331031  -0.028135  -0.026530  -0.001136   5.100022
     7  H    0.003970  -0.038197  -0.001163  -0.004518   0.006329   0.368157
     8  H   -0.001394  -0.040365  -0.007752   0.005685   0.000095   0.373190
     9  C   -0.008661  -0.044101   0.005844  -0.010283  -0.001375   0.343470
    10  C   -0.001939  -0.003263  -0.000033  -0.000383  -0.000018  -0.084757
    11  H   -0.000395   0.000104  -0.000011   0.000030   0.000000  -0.001927
    12  C   -0.000349  -0.002706   0.000019   0.003242  -0.000415  -0.051813
    13  N   -0.000016   0.000064   0.000000   0.000006   0.000000   0.005220
    14  H   -0.000001   0.000000   0.000000   0.000000   0.000000  -0.000088
    15  C    0.000059   0.000030   0.000003  -0.000122   0.000003   0.009816
    16  C    0.000031  -0.000163  -0.000016   0.002609  -0.004516  -0.012340
    17  H   -0.000005  -0.000311   0.000024   0.000487   0.012042   0.002376
    18  C    0.000000   0.000001   0.000000  -0.000005   0.000000  -0.000195
    19  H    0.000000   0.000000   0.000000   0.000000   0.000000   0.000001
    20  C    0.000000  -0.000014   0.000000  -0.000009   0.000066   0.000050
    21  H    0.000000   0.000000   0.000000   0.000002  -0.000004   0.000000
    22  C    0.000000   0.000000   0.000000  -0.000002   0.000001   0.000005
    23  H    0.000000   0.000000   0.000000   0.000000   0.000000   0.000000
    24  O   -0.000517  -0.089742   0.002247   0.267938  -0.078212  -0.002280
    25  H    0.318940  -0.036197   0.004130   0.001622  -0.000064  -0.004734
    26  C   -0.000373   0.007548  -0.000168  -0.022112   0.004277  -0.000152
    27  H   -0.000002  -0.000032   0.000004   0.004511   0.000664  -0.000002
    28  H   -0.000055   0.000031   0.000021  -0.005726   0.007555  -0.000025
    29  H   -0.000023  -0.000381  -0.000018  -0.005895   0.004026   0.000121
    30  C    0.231562  -0.023020  -0.001362  -0.002020  -0.000035   0.004432
    31  C   -0.106192   0.007389   0.000328  -0.000330  -0.000002  -0.000058
    32  C    0.007715  -0.000227  -0.000001   0.000004   0.000000   0.000001
    33  C   -0.006685   0.000041  -0.000015  -0.000013   0.000000  -0.000045
    34  O   -0.111224   0.006855   0.008813   0.006705  -0.000204   0.000564
    35  H   -0.000117   0.000002   0.000000   0.000000   0.000000   0.000000
    36  H    0.000726  -0.000017  -0.000004  -0.000002   0.000000   0.000000
    37  H    0.000102   0.000001   0.000001   0.000000   0.000000   0.000000
    38  H    0.001071  -0.000034   0.000005  -0.000009   0.000000  -0.000014
    39  H    0.000683   0.000073  -0.000017   0.000005   0.000000   0.000004
               7          8          9         10         11         12
     1  N    0.003970  -0.001394  -0.008661  -0.001939  -0.000395  -0.000349
     2  C   -0.038197  -0.040365  -0.044101  -0.003263   0.000104  -0.002706
     3  H   -0.001163  -0.007752   0.005844  -0.000033  -0.000011   0.000019
     4  C   -0.004518   0.005685  -0.010283  -0.000383   0.000030   0.003242
     5  O    0.006329   0.000095  -0.001375  -0.000018   0.000000  -0.000415
     6  C    0.368157   0.373190   0.343470  -0.084757  -0.001927  -0.051813
     7  H    0.573491  -0.028417  -0.024180   0.003839  -0.000060  -0.006155
     8  H   -0.028417   0.621705  -0.035751  -0.007080   0.003261   0.003793
     9  C   -0.024180  -0.035751   4.991404   0.493408  -0.032136   0.406753
    10  C    0.003839  -0.007080   0.493408   4.995428   0.371222   0.009081
    11  H   -0.000060   0.003261  -0.032136   0.371222   0.594583   0.002875
    12  C   -0.006155   0.003793   0.406753   0.009081   0.002875   4.797781
    13  N   -0.000085   0.000059  -0.055846   0.314857  -0.045323  -0.054606
    14  H    0.000003  -0.000005   0.004574  -0.032349  -0.002313   0.006898
    15  C   -0.000138  -0.000119   0.003061  -0.134088   0.005043   0.456574
    16  C    0.003162  -0.000012  -0.103644   0.015081  -0.000162   0.493461
    17  H    0.001450  -0.000009  -0.007975  -0.000168  -0.000002  -0.035402
    18  C   -0.000004   0.000003   0.012164   0.005622  -0.000130  -0.049745
    19  H    0.000000   0.000000  -0.000267  -0.000005   0.000001   0.004436
    20  C    0.000000   0.000002   0.007968  -0.000418   0.000004  -0.010555
    21  H    0.000001   0.000000  -0.000198   0.000005   0.000000   0.002428
    22  C    0.000000   0.000000  -0.000040  -0.000079   0.000002  -0.035978
    23  H    0.000000   0.000000   0.000007   0.000003   0.000000   0.001002
    24  O    0.000319  -0.000098   0.002903   0.000019  -0.000001  -0.000307
    25  H    0.000291   0.001804   0.007988   0.013231   0.001769   0.000076
    26  C   -0.000024   0.000006   0.000016   0.000005   0.000000   0.000067
    27  H    0.000000   0.000000  -0.000002   0.000000   0.000000  -0.000011
    28  H   -0.000002   0.000000   0.000007   0.000000   0.000000   0.000014
    29  H   -0.000009   0.000000  -0.000190  -0.000005   0.000000   0.000024
    30  C   -0.000053  -0.000055  -0.000003   0.000017  -0.000003  -0.000003
    31  C    0.000003  -0.000012  -0.000020   0.000014  -0.000006   0.000000
    32  C    0.000000   0.000000   0.000000   0.000000   0.000000   0.000000
    33  C    0.000000  -0.000010  -0.000056  -0.000334   0.000065   0.000002
    34  O    0.000003  -0.000009  -0.000022   0.000000   0.000000   0.000000
    35  H    0.000000   0.000000   0.000000   0.000000   0.000000   0.000000
    36  H    0.000000   0.000000   0.000000   0.000000   0.000000   0.000000
    37  H    0.000000   0.000000   0.000000   0.000001  -0.000002   0.000000
    38  H    0.000000  -0.000003   0.000067   0.000330   0.000006  -0.000003
    39  H    0.000000   0.000025  -0.000022  -0.000066   0.000338   0.000001
              13         14         15         16         17         18
     1  N   -0.000016  -0.000001   0.000059   0.000031  -0.000005   0.000000
     2  C    0.000064   0.000000   0.000030  -0.000163  -0.000311   0.000001
     3  H    0.000000   0.000000   0.000003  -0.000016   0.000024   0.000000
     4  C    0.000006   0.000000  -0.000122   0.002609   0.000487  -0.000005
     5  O    0.000000   0.000000   0.000003  -0.004516   0.012042   0.000000
     6  C    0.005220  -0.000088   0.009816  -0.012340   0.002376  -0.000195
     7  H   -0.000085   0.000003  -0.000138   0.003162   0.001450  -0.000004
     8  H    0.000059  -0.000005  -0.000119  -0.000012  -0.000009   0.000003
     9  C   -0.055846   0.004574   0.003061  -0.103644  -0.007975   0.012164
    10  C    0.314857  -0.032349  -0.134088   0.015081  -0.000168   0.005622
    11  H   -0.045323  -0.002313   0.005043  -0.000162  -0.000002  -0.000130
    12  C   -0.054606   0.006898   0.456574   0.493461  -0.035402  -0.049745
    13  N    6.907393   0.357438   0.267711   0.011089  -0.000102  -0.090925
    14  H    0.357438   0.437227  -0.029508  -0.000122   0.000004  -0.004674
    15  C    0.267711  -0.029508   4.794341  -0.058940   0.005200   0.479933
    16  C    0.011089  -0.000122  -0.058940   5.061430   0.357149  -0.057184
    17  H   -0.000102   0.000004   0.005200   0.357149   0.591908   0.000398
    18  C   -0.090925  -0.004674   0.479933  -0.057184   0.000398   4.978609
    19  H   -0.006144   0.002739  -0.038473   0.000543   0.000016   0.357376
    20  C   -0.000137  -0.000001  -0.043142   0.504656  -0.039176  -0.031407
    21  H    0.000003   0.000000   0.001068  -0.035779  -0.005305   0.004673
    22  C    0.005248  -0.000083  -0.005939  -0.027628   0.004309   0.531937
    23  H   -0.000114  -0.000002   0.002946   0.004586  -0.000168  -0.038039
    24  O   -0.000001   0.000000  -0.000079   0.000249  -0.000601   0.000004
    25  H   -0.000429   0.000002  -0.000131  -0.000025   0.000003   0.000000
    26  C   -0.000001   0.000000   0.000012  -0.001720   0.000014   0.000011
    27  H    0.000000   0.000000   0.000000   0.000013   0.000005   0.000000
    28  H    0.000000   0.000000   0.000000   0.000069  -0.000068   0.000000
    29  H    0.000002   0.000000  -0.000013   0.003710   0.000938  -0.000043
    30  C    0.000000   0.000000  -0.000001   0.000001   0.000000   0.000000
    31  C    0.000000   0.000000   0.000000   0.000000   0.000000   0.000000
    32  C    0.000000   0.000000   0.000000   0.000000   0.000000   0.000000
    33  C   -0.000002   0.000000   0.000001   0.000000   0.000000   0.000000
    34  O    0.000000   0.000000   0.000000   0.000000   0.000000   0.000000
    35  H    0.000000   0.000000   0.000000   0.000000   0.000000   0.000000
    36  H    0.000000   0.000000   0.000000   0.000000   0.000000   0.000000
    37  H    0.000000   0.000000   0.000000   0.000000   0.000000   0.000000
    38  H   -0.000002   0.000000  -0.000002   0.000000   0.000000   0.000000
    39  H    0.000000   0.000000   0.000000   0.000000   0.000000   0.000000
              19         20         21         22         23         24
     1  N    0.000000   0.000000   0.000000   0.000000   0.000000  -0.000517
     2  C    0.000000  -0.000014   0.000000   0.000000   0.000000  -0.089742
     3  H    0.000000   0.000000   0.000000   0.000000   0.000000   0.002247
     4  C    0.000000  -0.000009   0.000002  -0.000002   0.000000   0.267938
     5  O    0.000000   0.000066  -0.000004   0.000001   0.000000  -0.078212
     6  C    0.000001   0.000050   0.000000   0.000005   0.000000  -0.002280
     7  H    0.000000   0.000000   0.000001   0.000000   0.000000   0.000319
     8  H    0.000000   0.000002   0.000000   0.000000   0.000000  -0.000098
     9  C   -0.000267   0.007968  -0.000198  -0.000040   0.000007   0.002903
    10  C   -0.000005  -0.000418   0.000005  -0.000079   0.000003   0.000019
    11  H    0.000001   0.000004   0.000000   0.000002   0.000000  -0.000001
    12  C    0.004436  -0.010555   0.002428  -0.035978   0.001002  -0.000307
    13  N   -0.006144  -0.000137   0.000003   0.005248  -0.000114  -0.000001
    14  H    0.002739  -0.000001   0.000000  -0.000083  -0.000002   0.000000
    15  C   -0.038473  -0.043142   0.001068  -0.005939   0.002946  -0.000079
    16  C    0.000543   0.504656  -0.035779  -0.027628   0.004586   0.000249
    17  H    0.000016  -0.039176  -0.005305   0.004309  -0.000168  -0.000601
    18  C    0.357376  -0.031407   0.004673   0.531937  -0.038039   0.000004
    19  H    0.641951   0.004347  -0.000179  -0.038242  -0.005966   0.000000
    20  C    0.004347   4.862384   0.367303   0.519617  -0.038705  -0.000015
    21  H   -0.000179   0.367303   0.629244  -0.040142  -0.005850   0.000000
    22  C   -0.038242   0.519617  -0.040142   4.824755   0.366196   0.000000
    23  H   -0.005966  -0.038705  -0.005850   0.366196   0.632161   0.000000
    24  O    0.000000  -0.000015   0.000000   0.000000   0.000000   8.231257
    25  H    0.000000   0.000000   0.000000   0.000000   0.000000   0.000146
[...]
 934,-0.00050720,-0.00003205,0.00002029,-0.00004725,0.00000672,0.000046
 36,0.00018627,0.00006717,-0.00007396,-0.00002622,-0.00007476,0.0000904
 6,-0.00008650,-0.00001872,-0.00002893,-0.00002417,0.00000216,0.0000020
 6,-0.00000325,0.00001259,0.00002218,0.00000881,0.00000676,-0.00001354,
 0.00001399,-0.00000268,-0.00000465,-0.00000348,-0.00001063,-0.00000125
 ,0.00000490,0.00001441,-0.00000031,-0.00000284,-0.00000268,-0.00000290
 ,-0.00000244,-0.00000197,0.00001277,-0.00000437,-0.00000029,0.00000118
 ,0.00000199,-0.00000409,-0.00000066,-0.00000158,-0.00000291,-0.0000016
 8,0.00000178,0.,0.00000158,-0.00000068,0.00000147,0.00000267,-0.000001
 47,0.00000151,-0.00000156,0.00000001,0.00000315,-0.00000199,-0.0000007
 4,0.00000242,0.00000042,-0.00000088,0.00002212,-0.00002955,-0.00007557
 ,0.00002600,0.00022075,0.00011858,-0.00002479,0.00002003,0.00003664,0.
 00000376,0.00000109,-0.00000702,0.00000297,-0.00000365,0.00000118,0.00
 000367,-0.00000304,-0.00000311,-0.00514277,0.00237833,0.00588780,-0.00
 781094,0.00800138,-0.00536803,0.06844010,-0.11741763,0.10792490,0.0011
 7216,-0.00216592,-0.00423195,0.00192836,0.00049126,-0.00027236,-0.0713
 1898,0.11286776,-0.00015321,-0.00009088,-0.00062260,0.00022529,-0.0006
 7139,-0.00031568,0.00002528,0.00001916,0.00001895,0.00014466,-0.000071
 94,0.00008858,-0.00004187,0.00001755,-0.00001750,-0.00010318,0.0001883
 4,-0.00007105,-0.00004486,-0.00005063,-0.00004321,0.00000620,0.0000017
 4,0.00000919,0.00002749,-0.00000469,-0.00003358,0.00000469,0.00005716,
 -0.00002767,-0.00000204,0.00000826,0.00000407,0.00001760,-0.00001484,-
 0.00000232,-0.00004103,-0.00004324,0.00003373,-0.00000778,0.00000923,-
 0.00000055,-0.00000330,-0.00001424,0.00000785,-0.00000038,-0.00000178,
 -0.00000404,0.00000732,-0.00000097,0.00000283,0.00000460,0.00000100,-0
 .00000214,-0.00000177,-0.00000357,0.00000214,-0.00000188,-0.00000376,0
 .00000093,-0.00000134,0.00000187,0.00000097,-0.00000494,0.00000312,0.0
 0000050,-0.00000329,-0.00000040,0.00000170,-0.00006630,0.00003290,0.00
 002865,-0.00007467,0.00023985,0.00015322,0.00003394,-0.00002616,-0.000
 03382,0.00000130,0.00000339,0.00000420,-0.00000212,0.00000427,0.000003
 58,-0.00001011,0.00000463,0.00000196,-0.00341945,0.00487191,0.00615200
 ,-0.00269712,0.00665499,-0.00061830,-0.11047028,0.10607353,-0.18752187
 ,0.00302101,-0.00304100,-0.00342899,-0.00041767,-0.00085995,-0.0004712
 6,0.12189523,-0.11645840,0.19025160,0.00150154,0.00089907,0.00016403,0
 .00003817,0.00005102,-0.00034624,-0.00011555,0.00000981,-0.00010141,-0
 .00014932,0.00011747,0.00013434,0.00013924,-0.00011068,-0.00000247,-0.
 00001369,-0.00005381,-0.00004269,0.00002143,0.00001218,0.00000751,0.00
 000090,0.00000658,-0.00000564,-0.00001517,0.00001479,0.00005768,-0.000
 01934,-0.00009074,0.00002484,0.00000101,-0.00000013,0.00002325,-0.0000
 2481,0.00003064,0.00000245,0.00005390,0.00007508,-0.00007483,0.0000224
 8,-0.00000363,0.00001335,0.00000933,0.00000893,-0.00000453,0.00000811,
 -0.00000638,0.00000932,-0.00001321,0.00000068,-0.00000716,0.00000017,0
 .00000209,-0.00000285,0.00000339,0.00000481,-0.00000173,-0.00000499,0.
 00000284,0.00000287,-0.00000037,-0.00000140,-0.00000113,0.00000186,0.0
 0000118,-0.00000131,0.00000318,0.00000116,-0.00000175,0.00009565,-0.00
 004273,-0.00009414,0.00029335,-0.00009713,0.00015983,-0.00005967,0.000
 03490,0.00005596,-0.00000118,-0.00000811,-0.00000891,0.00000286,-0.000
 00308,-0.00000546,0.00001550,-0.00000732,-0.00000188,-0.00351770,-0.00
 227903,0.00397461,-0.00806874,-0.02461633,0.01474894,-0.10380684,-0.09
 596085,0.04925005,-0.00197204,-0.00242233,-0.00573201,0.00202476,0.002
 09605,-0.00057952,0.00891735,0.01255796,-0.00778412,0.10555220,-0.0005
 7207,-0.00004518,-0.00000760,-0.00006145,0.00014578,0.00024875,0.00002
 271,0.00001450,0.00000478,-0.00002285,0.00000931,0.00000417,-0.0000305
 3,0.00001955,-0.00001976,0.00002765,-0.00001658,0.00003443,0.00000806,
 0.00001108,0.00000508,-0.00000222,-0.00000917,-0.00001006,-0.00000345,
 -0.00001599,-0.00001129,-0.00002187,0.00001866,-0.00000418,-0.00000127
 ,-0.00000383,-0.00000185,0.00000436,-0.00000421,-0.00000161,0.00000101
 ,-0.00001030,-0.00000428,-0.00000172,0.00000397,0.00000661,0.00000538,
 0.00000371,-0.00000018,-0.00000329,0.00000194,-0.00000375,0.00000257,0
 .00000089,0.00000336,-0.00000282,-0.00000109,-0.00000108,0.00000080,0.
 00000055,0.00000130,0.00000326,-0.00000111,-0.00000332,0.00000111,0.00
 000039,0.00000073,0.00000241,-0.00000275,-0.00000150,0.00000043,-0.000
 00002,0.00000077,-0.00000335,-0.00000014,-0.00003972,-0.00004519,-0.00
 008711,0.00002050,0.00000948,0.00000329,0.00000457,0.00000276,-0.00000
 160,-0.00000400,0.00000301,-0.00000170,0.00000018,-0.00000142,-0.00000
 245,-0.00000134,0.00208007,-0.00379146,-0.00229149,-0.00463760,-0.0032
 3978,0.00477247,-0.10051251,-0.22717314,0.11301676,-0.00325049,0.00526
 093,0.00484372,0.00199405,-0.00024138,0.00092131,-0.00577377,-0.004772
 85,0.00361556,0.11088441,0.23419596,0.00101641,0.00071705,0.00029115,-
 0.00016920,0.00037217,0.00009010,-0.00008178,-0.00002473,-0.00004732,-
 0.00013605,0.00007607,0.00015890,0.00004190,-0.00003008,-0.00006147,0.
 00004971,-0.00006987,0.00003379,0.00002717,0.00002642,0.00002375,-0.00
 000201,-0.00001084,-0.00001478,-0.00000852,0.00000789,0.00003258,-0.00
 000859,-0.00003649,0.00002893,0.00000002,-0.00001085,-0.00000742,-0.00
 002079,0.00000376,0.00000634,0.00003535,0.00001801,-0.00002985,0.00000
 223,-0.00000216,0.00000576,0.00000568,0.00002367,-0.00000864,-0.000002
 62,0.00000324,-0.00000196,-0.00000369,0.00000165,0.00000215,-0.0000071
 5,-0.00000282,0.00000034,0.00000211,0.00000389,-0.00000030,0.00000476,
 0.00000177,-0.00000568,0.00000352,-0.00000164,0.00000060,0.00000882,-0
 .00000558,-0.00000324,0.00000393,0.00000067,-0.00000051,0.00004298,-0.
 00004891,-0.00016157,0.00015722,-0.00005517,0.00005722,-0.00002176,0.0
 0003189,0.00005759,0.00001050,-0.00000214,-0.00001698,0.00000937,-0.00
 000935,0.00000039,0.00000523,-0.00000893,-0.00000789,0.00054759,-0.004
 43279,-0.00345908,-0.00268801,-0.00567615,0.00849453,0.05318675,0.1153
 3425,-0.11101078,-0.00486906,0.00530414,0.00560585,-0.00067936,0.00081
 211,-0.00153219,0.00832407,0.01335089,-0.00451717,-0.05482206,-0.12447
 102,0.10593639,-0.00001279,0.00012024,-0.00007930,0.00045156,0.0000542
 4,0.00000552,-0.00011110,0.00006669,-0.00009264,0.00005964,-0.00010150
 ,0.00009957,-0.00008972,0.00008908,-0.00004927,0.00000141,0.00001923,0
 .00004019,-0.00000849,0.00000067,-0.00000774,0.00000102,-0.00000468,0.
 00000434,0.00001543,-0.00009013,-0.00001985,-0.00004887,0.00007785,-0.
 00009868,0.00000335,0.00003316,0.00004219,0.00002961,0.00000518,-0.000
 01017,-0.00002358,-0.00001359,-0.00000213,-0.00000639,0.00002512,-0.00
 000668,-0.00001753,-0.00002020,0.00002624,0.00001197,-0.00002211,-0.00
 000456,0.00000860,0.00000045,0.00000463,0.00002850,0.00001096,-0.00001
 471,-0.00000428,-0.00000918,0.00000287,-0.00001397,-0.00001527,0.00000
 877,-0.00000458,0.00000361,0.00000148,-0.00001916,0.00001893,0.0000013
 6,-0.00000790,0.00000019,0.00000236,-0.00005997,0.00010392,-0.00003096
 ,0.00054178,0.00010745,0.00053704,0.00006559,-0.00006578,-0.00006921,0
 .00000204,-0.00000798,0.00000166,-0.00001084,0.00001713,0.00000010,-0.
 00001086,0.00000688,0.00000352,-0.00303237,-0.00270745,0.00009267,0.01
 014847,-0.00743674,0.01177015,0.00072901,-0.00080014,0.00131798,-0.148
 18451,0.07179698,-0.11215705,0.00087751,-0.00059918,0.00103333,-0.0000
 2481,-0.00000652,-0.00016429,0.00015721,0.00020086,0.00000093,0.159066
 48,0.00019470,0.00070369,0.00010175,0.00003604,0.00031315,-0.00019646,
 -0.00013696,-0.00001994,-0.00005703,-0.00009320,0.00008647,0.00001166,
 0.00007994,-0.00006493,0.00001680,0.00002075,-0.00007100,0.00001477,0.
 00001979,0.00002315,0.00001028,0.00000068,0.00000133,0.00000073,-0.000
 00642,-0.00005185,0.00004977,-0.00003492,-0.00005414,-0.00005931,0.000
 00575,0.00004121,0.00006967,-0.00000529,0.00003251,-0.00000155,0.00004
 653,0.00006114,-0.00006105,0.00001104,0.00000742,0.00000442,-0.0000263
 0,0.00000131,0.00001442,0.00000842,-0.00001335,0.00000762,-0.00000791,
 0.00000088,-0.00000410,0.00001664,0.00000677,-0.00000862,0.00000017,-0
 .00000002,0.00000033,-0.00001181,-0.00000563,0.00000710,-0.00000178,-0
 .00000010,0.00000036,-0.00001228,0.00001201,0.00000010,0.00000050,0.00
 000140,-0.00000037,0.00006569,-0.00005223,-0.00003579,0.00039421,-0.00
 076731,-0.00014769,-0.00004818,0.00003762,0.00005947,0.00000270,0.0000
 0026,-0.00000671,0.00000719,-0.00000798,-0.00000179,0.00001136,-0.0000
 0887,-0.00000577,-0.00456318,-0.00135191,-0.00025012,0.01585053,-0.012
 17403,0.01793637,0.00171356,0.00096327,-0.00022162,0.06977513,-0.09629
 642,0.07655356,0.00063253,-0.00160737,0.00169734,-0.00100156,0.0001828
 3,-0.00045569,0.00014345,0.00019284,-0.00026415,-0.07409589,0.10356597
 ,-0.00044154,0.00000759,0.00029912,0.00010732,-0.00013437,0.00031761,0
 .00007928,0.00003693,0.00004577,0.00010848,-0.00008250,-0.00025163,-0.
 00009403,0.00008414,0.00005883,-0.00000771,0.00007148,-0.00000344,-0.0
 0002562,-0.00001238,-0.00002272,0.00000193,-0.00000109,0.00001810,0.00
 002483,-0.00005066,-0.00001641,-0.00000269,0.00004978,-0.00009213,0.00
 000575,0.00005143,0.00005527,0.00002372,0.00000077,-0.00000618,-0.0000
 3259,-0.00002065,0.00002154,-0.00000874,0.00001572,-0.00000611,-0.0000
 3767,-0.00002309,0.00002405,0.00000330,-0.00000870,-0.00000039,0.00000
 789,-0.00000075,0.00000124,0.00001995,0.00000694,-0.00000673,-0.000003
 83,-0.00000673,0.00000262,-0.00001089,-0.00001017,0.00000841,-0.000003
 82,0.00000249,0.00000089,-0.00001879,0.00001416,0.00000323,-0.00000534
 ,-0.00000009,0.00000168,-0.00006035,0.00002911,0.00015965,0.00036976,-
 0.00023563,-0.00073130,0.00002287,-0.00002188,-0.00003860,-0.00000314,
 0.00000920,0.00001324,-0.00000291,0.00000161,0.00000320,-0.00000797,0.
 00000584,0.00000197,0.00186299,0.00081807,0.00141376,-0.00839347,0.006
 57190,-0.01056697,-0.00093640,-0.00166577,0.00048567,-0.11032233,0.077
 42118,-0.16856863,-0.00006799,0.00109719,-0.00104132,0.00064635,0.0001
 5384,0.00060889,0.00006015,-0.00026211,-0.00001276,0.12019637,-0.08650
 406,0.17974558,0.00072050,0.00022515,-0.00035391,0.00029470,0.00007621
 ,-0.00010646,-0.00006847,0.00004619,-0.00008310,-0.00002322,-0.0000088
 3,0.00026053,0.00000455,0.00000377,-0.00008682,0.00001965,-0.00002007,
 0.00002316,0.00000785,0.00000703,0.00000837,-0.00000232,-0.00000801,-0
 .00001047,0.00000250,0.00000712,0.00001178,-0.00001168,-0.00001625,-0.
 00000110,0.00000436,-0.00000480,0.00000168,-0.00001007,-0.00000152,-0.
 00000065,0.00000704,-0.00000419,-0.00001200,0.00000105,0.00000154,0.00
 000942,0.00000164,0.00001175,-0.00000441,-0.00000346,0.00000167,-0.000
 00383,0.00000170,0.00000118,0.00000479,-0.00000592,-0.00000273,-0.0000
 0124,0.00000205,0.00000268,0.00000181,0.00000365,-0.00000144,-0.000005
 71,0.00000239,0.00000007,0.00000192,0.00000468,-0.00000334,-0.00000402
 ,0.00000233,0.00000035,0.00000151,-0.00001572,-0.00002718,-0.00016746,
 0.00019450,0.00050752,-0.00005676,0.00000927,-0.00000147,0.00005890,0.
 00001627,-0.00000971,-0.00002151,0.00000103,-0.00000011,-0.00000629,-0
 .00000279,-0.00000033,-0.00001038,-0.00204957,0.00005296,-0.00133931,-
 0.01387065,0.00054849,0.00623100,0.00060837,-0.00171509,0.00212833,-0.
 22157401,0.06711878,0.10045523,0.00062742,-0.00015074,0.00034460,-0.00
 017933,0.00058713,0.00074642,0.00005341,-0.00105015,-0.00107000,-0.015
 40463,0.00569691,0.00981905,0.24244866,0.00064942,0.00005992,0.0001139
 2,0.00000250,-0.00011713,0.00017235,0.00003154,-0.00001538,0.00000899,
 -0.00003685,0.00007162,0.00033907,-0.00006244,0.00003923,-0.00014836,0
 .00003775,0.00002112,-0.00003376,-0.00001153,-0.00000252,0.00000979,-0
 .00000901,-0.00001101,0.00000937,-0.00000526,0.00002123,0.00001660,0.0
 0014314,0.00001597,-0.00002836,0.00002110,0.00000658,0.00000107,-0.000
 01879,-0.00001156,0.00000526,-0.00001385,-0.00004450,0.00012639,-0.000
 02342,-0.00002888,-0.00006414,-0.00006239,0.00002895,-0.00000856,-0.00
 000934,0.00000665,-0.00000630,0.00000934,-0.00000096,0.00000800,0.0000
 0298,-0.00000214,0.00001213,-0.00000764,-0.00000738,-0.00000378,0.0000
 0535,-0.00000427,-0.00000338,0.00000356,-0.00000228,0.00000060,-0.0000
 0271,0.00000538,0.00000399,-0.00000035,-0.00000085,-0.00000143,-0.0000
 7625,0.00004211,-0.00026745,0.00014581,0.00034495,0.00031789,0.0000780
 6,-0.00005363,-0.00002362,0.00002604,-0.00001368,-0.00001391,-0.000009
 84,0.00000935,-0.00000060,-0.00001988,0.00001204,-0.00000909,-0.000590
 23,0.00048074,-0.00024633,-0.02440714,0.00919385,0.01252828,-0.0004159
 2,-0.00250843,0.00191848,0.06486470,-0.07024516,-0.03565090,0.00027745
 ,-0.00016394,-0.00019642,-0.00044771,0.00059521,0.00054473,0.00005482,
 -0.00141282,-0.00169660,0.01001209,-0.00467695,-0.00713245,-0.06962165
 ,0.07558695,-0.00067271,0.00013703,0.00021763,-0.00060141,0.00003429,-
 0.00009120,0.00009984,-0.00010746,0.00010869,-0.00006514,0.00012754,-0
 .00020317,0.00012302,-0.00012779,0.00009353,0.00003351,-0.00003827,-0.
 00006982,0.00001299,0.00000316,0.00001565,-0.00000794,0.00000839,0.000
 01216,-0.00001190,0.00011421,0.00007292,0.00014165,-0.00013864,0.00005
 855,0.00001608,-0.00000413,-0.00001600,-0.00005728,0.00000006,0.000020
 12,0.00002847,0.00001724,0.00005157,-0.00000553,-0.00003960,-0.0000343
 6,-0.00004608,0.00003860,-0.00002584,-0.00001278,0.00002378,0.00000861
 ,-0.00001006,-0.00000175,-0.00000713,-0.00001947,-0.00000809,0.0000195
 1,-0.00000039,0.00000612,-0.00000562,0.00001044,0.00001315,-0.00000455
 ,0.00000574,-0.00000612,-0.00000224,0.00001312,-0.00001165,0.00000157,
 0.00000893,0.00000025,-0.00000462,0.00007495,-0.00019033,0.00008183,-0
 .00061055,0.00011668,-0.00246857,-0.00009779,0.00010541,0.00013648,0.0
 0000369,0.00000877,-0.00000518,0.00002000,-0.00003105,-0.00000419,0.00
 001663,-0.00001170,-0.00001165,0.00239447,0.00023300,0.00086289,0.0105
 2146,-0.00339305,-0.00550051,-0.00046458,0.00103475,-0.00103644,0.1014
 6014,-0.03666798,-0.10665587,-0.00081033,-0.00014407,-0.00007364,0.000
 11196,-0.00009493,0.00003244,0.00012674,0.00023516,0.00063079,-0.01852
 476,0.00654380,0.01199848,-0.11212215,0.03926085,0.11275208,0.00021118
 ,0.00046753,0.00002023,-0.00006706,0.00005350,-0.00000123,0.00000865,-
 0.00003170,-0.00000073,-0.00005866,0.00006976,0.00015957,0.00003486,-0
 .00004505,-0.00004666,0.00005199,-0.00002768,-0.00005428,0.00000030,-0
 .00000030,0.00002438,-0.00001278,-0.00000257,0.00001463,-0.00006028,0.
 00021410,0.00004051,0.00027990,-0.00012681,0.00015276,0.00001160,-0.00
 006859,-0.00015026,0.00001994,-0.00002855,-0.00001635,-0.00010158,-0.0
 0002577,0.00012638,-0.00001593,-0.00004096,-0.00003979,0.00004091,-0.0
 0000320,-0.00003201,-0.00004137,0.00003733,-0.00000115,-0.00000094,-0.
 00000195,0.00000073,-0.00005163,-0.00001005,0.00002220,0.00000035,0.00
 000637,-0.00000473,0.00003686,0.00003024,-0.00002654,0.00000766,-0.000
 00432,-0.00000022,0.00003454,-0.00004187,0.00000328,0.00000708,-0.0000
 0097,-0.00000273,0.00002487,-0.00002828,-0.00012620,-0.00038507,0.0011
 8789,-0.00056161,-0.00000846,0.00001616,0.00005289,0.00000760,-0.00001
 096,-0.00001515,0.00000115,-0.00000401,-0.00000656,0.00000196,0.000000
 31,-0.00000495,-0.00052495,0.00041938,-0.00058006,-0.00705883,-0.01245
 116,-0.01030112,0.00014967,-0.00219743,0.00164134,-0.06322333,-0.04551
 629,-0.04701643,0.00005397,-0.00010527,0.00030119,0.00053548,-0.000622
 30,-0.00064402,-0.00113438,0.00074360,0.00110441,-0.00510283,-0.014688
 52,-0.01287216,0.00818226,0.01948653,0.01891703,0.06814527,0.00064410,
 0.00117868,0.00077148,0.00055610,0.00010029,0.00028551,-0.00009301,0.0
 0009486,-0.00009361,0.00007520,-0.00010346,-0.00034799,-0.00009341,0.0
 0011554,0.00009907,0.00002781,0.00000866,0.00002649,-0.00001646,0.0000
 1341,-0.00001865,0.00000181,0.00000287,0.00002900,0.00002333,-0.000168
 47,0.00003734,-0.00011717,0.00002230,-0.00022312,0.00001640,0.00013769
 ,0.00016661,0.00005297,0.00003696,-0.00002960,-0.00001091,0.00005189,-
 0.00006169,0.00000304,0.00002999,0.00001025,-0.00005236,-0.00005803,0.
 00005558,0.00001736,-0.00003675,0.00000663,0.00000357,0.00000018,-0.00
 000328,0.00005055,0.00002001,-0.00002304,-0.00000306,-0.00001006,0.000
 00459,-0.00002975,-0.00002041,0.00002210,-0.00001175,0.00000664,0.0000
 0133,-0.00004410,0.00003351,0.00000598,-0.00001099,0.00000058,0.000002
 93,-0.00003531,0.00008652,0.00023948,0.00160834,-0.00166151,-0.0000675
 0,0.00001738,-0.00004761,-0.00007525,-0.00001447,0.00000586,0.00002347
 ,-0.00001074,0.00001379,0.00000163,-0.00000241,0.00000631,0.00000852,-
 0.00317014,-0.00022775,-0.00182445,-0.00841061,-0.01690869,-0.01557904
 ,0.00044889,-0.00253728,0.00240219,-0.04564955,-0.17096377,-0.12028169
 ,0.00096918,0.00046408,0.00049035,0.00023799,-0.00035967,-0.00053967,-
 0.00130623,0.00095131,0.00077072,0.00322545,0.01098881,0.00972370,-0.0
 0224890,-0.00721838,-0.00704562,0.05335186,0.18595114,-0.00052595,0.00
 027804,-0.00014857,0.00007608,0.00024272,-0.00018538,-0.00005188,0.000
 04241,-0.00002276,-0.00000188,0.00000484,-0.00011068,0.00005556,-0.000
 04033,0.00005622,-0.00003565,-0.00003338,0.00006062,0.00001739,0.00001
 063,-0.00000527,0.00001027,0.00000213,-0.00001501,-0.00002099,0.000001
 59,0.00000342,-0.00013851,-0.00009216,-0.00001655,-0.00006189,-0.00003
 131,0.00001468,0.00002231,0.00004709,-0.00001591,0.00002731,0.00009943
 ,-0.00012975,0.00007053,0.00001762,0.00006848,0.00009071,-0.00005315,0
 .00000250,0.00000990,-0.00000616,0.00000666,-0.00000848,0.00000205,-0.
 00000657,-0.00000470,0.00000181,-0.00000907,0.00000729,0.00000395,-0.0
 0000046,-0.00000991,0.00000632,0.00000459,-0.00000442,0.00000287,-0.00
 000125,-0.00000105,0.00000007,-0.00000028,-0.00000209,0.00000082,0.000
 00126,0.00003446,-0.00000417,0.00008047,-0.00013383,0.00023592,-0.0001
 5851,-0.00002860,0.00000997,-0.00002144,-0.00000892,0.00000559,0.00000
 921,0.00000187,-0.00000012,0.00000317,0.00000763,-0.00000465,0.0000049
 0,-0.00072374,-0.00007247,0.00009048,0.00364086,0.01099903,0.01369264,
 0.00083861,0.00119136,-0.00086668,-0.04568872,-0.11850724,-0.16435501,
 0.00022893,-0.00026521,0.00005918,0.00008429,0.00015567,0.00032377,0.0
 0080594,-0.00060009,-0.00055757,-0.00386126,-0.01481842,-0.01392350,-0
 .00464090,-0.00986231,-0.01095489,0.04992343,0.13102924,0.17702285||0.
 00000021,-0.00000095,-0.00000056,0.00000070,-0.00000236,-0.00000131,0.
 00000060,-0.00000307,-0.00000250,0.00000086,-0.00000021,-0.00000292,0.
 00000147,-0.00000124,-0.00000333,-0.00000054,-0.00000272,-0.00000019,0
 .00000006,-0.00000336,-0.00000072,-0.00000064,-0.00000406,0.00000030,-
 0.00000014,-0.00000215,0.00000117,-0.00000135,-0.00000088,0.00000298,-
 0.00000177,-0.00000225,0.00000324,-0.00000090,-0.00000002,0.00000140,-
 0.00000192,-0.00000010,0.00000347,-0.00000191,0.00000048,0.00000528,-0
 .00000096,0.00000087,0.00000290,0.00000014,0.00000034,0.,0.00000040,-0
 .00000032,-0.00000110,-0.00000118,0.00000220,0.00000341,-0.00000163,0.
 00000289,0.00000464,-0.00000008,0.00000185,0.00000059,0.00000039,0.000
 00217,-0.00000032,-0.00000064,0.00000264,0.00000221,-0.00000061,0.0000
 0379,0.00000255,0.00000077,0.00000097,-0.00000229,-0.00000008,-0.00000
 045,0.00000018,0.00000231,0.00000219,-0.00000373,0.00000186,0.00000364
 ,-0.00000340,0.00000218,0.00000183,-0.00000488,0.00000150,0.00000252,-
 0.00000297,0.00000038,-0.00000199,-0.00000164,-0.00000005,-0.00000055,
 -0.00000059,0.00000039,-0.00000079,-0.00000114,-0.00000030,0.00000051,
 0.00000091,0.00000083,-0.00000246,-0.00000279,0.00000029,-0.00000022,-
 0.00000072,0.00000082,-0.00000172,-0.00000243,-0.00000048,0.00000126,0
 .00000151,-0.00000008,0.00000178,0.00000073,-0.00000088,-0.00000005,0.
 00000207|||@


 SIC AS THE CAWSE OF EWERY THING IS, SIC WILBE THE EFFECT.
 -- PROVERBS AND REASONS OF THE YEAR 1585
           AS REPRINTED IN PAISLEY MAGAZINE 1828.
 Job cpu time:       0 days  0 hours 36 minutes 41.0 seconds.
 File lengths (MBytes):  RWF=    641 Int=      0 D2E=      0 Chk=     14 Scr=      1
 Normal termination of Gaussian 09 at Thu Feb 08 00:10:22 2024.
