 Entering Link 1 = C:\G09W\l1.exe PID=    125164.
  
 Copyright (c) 1988,1990,1992,1993,1995,1998,2003,2009,2013,
            Gaussian, Inc.  All Rights Reserved.
  
 This is part of the Gaussian(R) 09 program.  It is based on
 the Gaussian(R) 03 system (copyright 2003, Gaussian, Inc.),
 the Gaussian(R) 98 system (copyright 1998, Gaussian, Inc.),
 the Gaussian(R) 94 system (copyright 1995, Gaussian, Inc.),
 the Gaussian 92(TM) system (copyright 1992, Gaussian, Inc.),
 the Gaussian 90(TM) system (copyright 1990, Gaussian, Inc.),
 the Gaussian 88(TM) system (copyright 1988, Gaussian, Inc.),
 the Gaussian 86(TM) system (copyright 1986, Carnegie Mellon
 University), and the Gaussian 82(TM) system (copyright 1983,
 Carnegie Mellon University). Gaussian is a federally registered
 trademark of Gaussian, Inc.
  
 This software contains proprietary and confidential information,
 including trade secrets, belonging to Gaussian, Inc.
  
 This software is provided under written license and may be
 used, copied, transmitted, or stored only in accord with that
 written license.
  
 The following legend is applicable only to US Government
 contracts under FAR:
  
                    RESTRICTED RIGHTS LEGEND
  
 Use, reproduction and disclosure by the US Government is
 subject to restrictions as set forth in subparagraphs (a)
 and (c) of the Commercial Computer Software - Restricted
 Rights clause in FAR 52.227-19.
  
 Gaussian, Inc.
 340 Quinnipiac St., Bldg. 40, Wallingford CT 06492
  
  
 ---------------------------------------------------------------
 Warning -- This program may not be used in any manner that
 competes with the business of Gaussian, Inc. or will provide
 assistance to any competitor of Gaussian, Inc.  The licensee
 of this program is prohibited from giving any competitor of
 Gaussian, Inc. access to this program.  By using this program,
 the user acknowledges that Gaussian, Inc. is engaged in the
 business of creating and licensing software in the field of
 computational chemistry and represents and warrants to the
 licensee that it is not a competitor of Gaussian, Inc. and that
 it will not use this program in any manner prohibited above.
 ---------------------------------------------------------------
  

 Cite this work as:
 Gaussian 09, Revision D.01,
 M. J. Frisch, G. W. Trucks, H. B. Schlegel, G. E. Scuseria, 
 M. A. Robb, J. R. Cheeseman, G. Scalmani, V. Barone, B. Mennucci, 
 G. A. Petersson, H. Nakatsuji, M. Caricato, X. Li, H. P. Hratchian, 
 A. F. Izmaylov, J. Bloino, G. Zheng, J. L. Sonnenberg, M. Hada, 
 M. Ehara, K. Toyota, R. Fukuda, J. Hasegawa, M. Ishida, T. Nakajima, 
 Y. Honda, O. Kitao, H. Nakai, T. Vreven, J. A. Montgomery, Jr., 
 J. E. Peralta, F. Ogliaro, M. Bearpark, J. J. Heyd, E. Brothers, 
 K. N. Kudin, V. N. Staroverov, T. Keith, R. Kobayashi, J. Normand, 
 K. Raghavachari, A. Rendell, J. C. Burant, S. S. Iyengar, J. Tomasi, 
 M. Cossi, N. Rega, J. M. Millam, M. Klene, J. E. Knox, J. B. Cross, 
 V. Bakken, C. Adamo, J. Jaramillo, R. Gomperts, R. E. Stratmann, 
 O. Yazyev, A. J. Austin, R. Cammi, C. Pomelli, J. W. Ochterski, 
 R. L. Martin, K. Morokuma, V. G. Zakrzewski, G. A. Voth, 
 P. Salvador, J. J. Dannenberg, S. Dapprich, A. D. Daniels, 
 O. Farkas, J. B. Foresman, J. V. Ortiz, J. Cioslowski, 
 and D. J. Fox, Gaussian, Inc., Wallingford CT, 2013.
 
 ******************************************
 Gaussian 09:  IA32W-G09RevD.01 24-Apr-2013
                28-Jan-2024 
 ******************************************
 %nprocshared=8
 Will use up to    8 processors via shared memory.
 %chk=Preview_31ihs.chk
 -------------------------------------------------------------
 #p opt=tight freq b3lyp/6-31g(d) guess=save geom=connectivity
 -------------------------------------------------------------
 1/7=10,14=-1,18=20,19=15,26=3,38=1,57=2/1,3;
 2/9=110,12=2,17=6,18=5,40=1/2;
 3/5=1,6=6,7=1,11=2,16=1,25=1,30=1,71=1,74=-5/1,2,3;
 4//1;
 5/5=2,38=5/2;
 6/7=2,8=2,9=2,10=2,28=1/1;
 7//1,2,3,16;
 1/7=10,14=-1,18=20,19=15,26=3/3(2);
 2/9=110/2;
 99//99;
 2/9=110/2;
 3/5=1,6=6,7=1,11=2,16=1,25=1,30=1,71=1,74=-5/1,2,3;
 4/5=5,16=3,69=1/1;
 5/5=2,38=5/2;
 7//1,2,3,16;
 1/7=10,14=-1,18=20,19=15,26=3/3(-5);
 2/9=110/2;
 6/7=2,8=2,9=2,10=2,19=2,28=1/1;
 99/9=1/99;
 Leave Link    1 at Sun Jan 28 14:33:15 2024, MaxMem=           0 cpu:         0.0
 (Enter C:\G09W\l101.exe)
 --------------------------------
 MATrp OptFreq tight B3LYP/6-31Gd
 --------------------------------
 Symbolic Z-matrix:
 Charge =  0 Multiplicity = 1
 N                    -1.89043   0.43518  -0.00467 
 C                    -1.02164   1.12568   0.92809 
 H                    -1.65812   1.69331   1.61333 
 C                    -0.10842   2.12589   0.23428 
 O                     0.5677    3.12214   0.38429 
 C                    -0.1756    0.14835   1.80786 
 H                     0.41602   0.75938   2.49884 
 H                    -0.90047  -0.41108   2.40719 
 C                     0.70244  -0.79537   1.03973 
 C                     0.36648  -2.07066   0.65469 
 H                    -0.5416   -2.62677   0.84567 
 C                     2.04072  -0.56322   0.54192 
 N                     1.40323  -2.64295  -0.05793 
 H                     1.42016  -3.59093  -0.39988 
 C                     2.44905  -1.74594  -0.1363 
 C                     2.94201   0.51597   0.61602 
 H                     2.66292   1.43294   1.1266 
 C                     3.7066   -1.87216  -0.73594 
 H                     3.99888  -2.78544  -1.24823 
 C                     4.19251   0.39385   0.02153 
 H                     4.89544   1.22066   0.07839 
 C                     4.57119  -0.78751  -0.64901 
 H                     5.55675  -0.85326  -1.10189 
 O                    -0.06515   1.96079  -1.10444 
 H                    -1.54003   0.28373  -0.93778 
 C                     0.86408   2.80892  -1.8061 
 H                     0.69933   2.60833  -2.86493 
 H                     0.64758   3.68984  -1.12542 
 H                     1.88724   2.55221  -1.52064 
 C                    -3.09615  -0.07361   0.39148 
 C                    -3.89041  -0.78593  -0.67763 
 C                    -5.07279  -1.29613  -0.31684 
 C                    -3.34486  -0.89732  -2.08135 
 O                    -3.50039   0.05113   1.54697 
 H                    -5.70815  -1.82104  -1.0249 
 H                    -5.42272  -1.18809   0.70438 
 H                    -4.04407  -1.4359   -2.7273 
 H                    -3.17202   0.08971  -2.53056 
 H                    -2.38905  -1.43874  -2.10644 
 
 NAtoms=     39 NQM=       39 NQMF=       0 NMMI=      0 NMMIF=      0
                NMic=       0 NMicF=      0.
                    Isotopes and Nuclear Properties:
 (Nuclear quadrupole moments (NQMom) in fm**2, nuclear magnetic moments (NMagM)
  in nuclear magnetons)

  Atom         1           2           3           4           5           6           7           8           9          10
 IAtWgt=          14          12           1          12          16          12           1           1          12          12
 AtmWgt=  14.0030740  12.0000000   1.0078250  12.0000000  15.9949146  12.0000000   1.0078250   1.0078250  12.0000000  12.0000000
 NucSpn=           2           0           1           0           0           0           1           1           0           0
 AtZEff=   0.0000000   0.0000000   0.0000000   0.0000000   0.0000000   0.0000000   0.0000000   0.0000000   0.0000000   0.0000000
 NQMom=    2.0440000   0.0000000   0.0000000   0.0000000   0.0000000   0.0000000   0.0000000   0.0000000   0.0000000   0.0000000
 NMagM=    0.4037610   0.0000000   2.7928460   0.0000000   0.0000000   0.0000000   2.7928460   2.7928460   0.0000000   0.0000000
 AtZNuc=   7.0000000   6.0000000   1.0000000   6.0000000   8.0000000   6.0000000   1.0000000   1.0000000   6.0000000   6.0000000

  Atom        11          12          13          14          15          16          17          18          19          20
 IAtWgt=           1          12          14           1          12          12           1          12           1          12
 AtmWgt=   1.0078250  12.0000000  14.0030740   1.0078250  12.0000000  12.0000000   1.0078250  12.0000000   1.0078250  12.0000000
 NucSpn=           1           0           2           1           0           0           1           0           1           0
 AtZEff=   0.0000000   0.0000000   0.0000000   0.0000000   0.0000000   0.0000000   0.0000000   0.0000000   0.0000000   0.0000000
 NQMom=    0.0000000   0.0000000   2.0440000   0.0000000   0.0000000   0.0000000   0.0000000   0.0000000   0.0000000   0.0000000
 NMagM=    2.7928460   0.0000000   0.4037610   2.7928460   0.0000000   0.0000000   2.7928460   0.0000000   2.7928460   0.0000000
 AtZNuc=   1.0000000   6.0000000   7.0000000   1.0000000   6.0000000   6.0000000   1.0000000   6.0000000   1.0000000   6.0000000

  Atom        21          22          23          24          25          26          27          28          29          30
 IAtWgt=           1          12           1          16           1          12           1           1           1          12
 AtmWgt=   1.0078250  12.0000000   1.0078250  15.9949146   1.0078250  12.0000000   1.0078250   1.0078250   1.0078250  12.0000000
 NucSpn=           1           0           1           0           1           0           1           1           1           0
 AtZEff=   0.0000000   0.0000000   0.0000000   0.0000000   0.0000000   0.0000000   0.0000000   0.0000000   0.0000000   0.0000000
 NQMom=    0.0000000   0.0000000   0.0000000   0.0000000   0.0000000   0.0000000   0.0000000   0.0000000   0.0000000   0.0000000
 NMagM=    2.7928460   0.0000000   2.7928460   0.0000000   2.7928460   0.0000000   2.7928460   2.7928460   2.7928460   0.0000000
 AtZNuc=   1.0000000   6.0000000   1.0000000   8.0000000   1.0000000   6.0000000   1.0000000   1.0000000   1.0000000   6.0000000

  Atom        31          32          33          34          35          36          37          38          39
 IAtWgt=          12          12          12          16           1           1           1           1           1
 AtmWgt=  12.0000000  12.0000000  12.0000000  15.9949146   1.0078250   1.0078250   1.0078250   1.0078250   1.0078250
 NucSpn=           0           0           0           0           1           1           1           1           1
 AtZEff=   0.0000000   0.0000000   0.0000000   0.0000000   0.0000000   0.0000000   0.0000000   0.0000000   0.0000000
 NQMom=    0.0000000   0.0000000   0.0000000   0.0000000   0.0000000   0.0000000   0.0000000   0.0000000   0.0000000
 NMagM=    0.0000000   0.0000000   0.0000000   0.0000000   2.7928460   2.7928460   2.7928460   2.7928460   2.7928460
 AtZNuc=   6.0000000   6.0000000   6.0000000   8.0000000   1.0000000   1.0000000   1.0000000   1.0000000   1.0000000
 Leave Link  101 at Sun Jan 28 14:33:16 2024, MaxMem=    33554432 cpu:         0.0
 (Enter C:\G09W\l103.exe)

 GradGradGradGradGradGradGradGradGradGradGradGradGradGradGradGradGradGrad
 Berny optimization.
 Initialization pass.
                           ----------------------------
                           !    Initial Parameters    !
                           ! (Angstroms and Degrees)  !
 --------------------------                            --------------------------
 ! Name  Definition              Value          Derivative Info.                !
 --------------------------------------------------------------------------------
 ! R1    R(1,2)                  1.4497         estimate D2E/DX2                !
 ! R2    R(1,25)                 1.0082         estimate D2E/DX2                !
 ! R3    R(1,30)                 1.3673         estimate D2E/DX2                !
 ! R4    R(2,3)                  1.094          estimate D2E/DX2                !
 ! R5    R(2,4)                  1.5218         estimate D2E/DX2                !
 ! R6    R(2,6)                  1.5636         estimate D2E/DX2                !
 ! R7    R(4,5)                  1.2133         estimate D2E/DX2                !
 ! R8    R(4,24)                 1.3496         estimate D2E/DX2                !
 ! R9    R(5,28)                 1.6149         estimate D2E/DX2                !
 ! R10   R(6,7)                  1.0958         estimate D2E/DX2                !
 ! R11   R(6,8)                  1.0944         estimate D2E/DX2                !
 ! R12   R(6,9)                  1.5005         estimate D2E/DX2                !
 ! R13   R(9,10)                 1.3739         estimate D2E/DX2                !
 ! R14   R(9,12)                 1.4466         estimate D2E/DX2                !
 ! R15   R(10,11)                1.0818         estimate D2E/DX2                !
 ! R16   R(10,13)                1.3821         estimate D2E/DX2                !
 ! R17   R(12,15)                1.4232         estimate D2E/DX2                !
 ! R18   R(12,16)                1.408          estimate D2E/DX2                !
 ! R19   R(13,14)                1.0079         estimate D2E/DX2                !
 ! R20   R(13,15)                1.38           estimate D2E/DX2                !
 ! R21   R(15,18)                1.3989         estimate D2E/DX2                !
 ! R22   R(16,17)                1.086          estimate D2E/DX2                !
 ! R23   R(16,20)                1.39           estimate D2E/DX2                !
 ! R24   R(18,19)                1.0872         estimate D2E/DX2                !
 ! R25   R(18,22)                1.3898         estimate D2E/DX2                !
 ! R26   R(20,21)                1.0867         estimate D2E/DX2                !
 ! R27   R(20,22)                1.4102         estimate D2E/DX2                !
 ! R28   R(22,23)                1.0866         estimate D2E/DX2                !
 ! R29   R(24,26)                1.4405         estimate D2E/DX2                !
 ! R30   R(26,27)                1.0902         estimate D2E/DX2                !
 ! R31   R(26,28)                1.1341         estimate D2E/DX2                !
 ! R32   R(26,29)                1.0928         estimate D2E/DX2                !
 ! R33   R(30,31)                1.5104         estimate D2E/DX2                !
 ! R34   R(30,34)                1.2305         estimate D2E/DX2                !
 ! R35   R(31,32)                1.3373         estimate D2E/DX2                !
 ! R36   R(31,33)                1.5101         estimate D2E/DX2                !
 ! R37   R(32,35)                1.0865         estimate D2E/DX2                !
 ! R38   R(32,36)                1.0849         estimate D2E/DX2                !
 ! R39   R(33,37)                1.0937         estimate D2E/DX2                !
 ! R40   R(33,38)                1.0981         estimate D2E/DX2                !
 ! R41   R(33,39)                1.0988         estimate D2E/DX2                !
 ! A1    A(2,1,25)             117.3081         estimate D2E/DX2                !
 ! A2    A(2,1,30)             121.2841         estimate D2E/DX2                !
 ! A3    A(25,1,30)            121.2477         estimate D2E/DX2                !
 ! A4    A(1,2,3)              107.5463         estimate D2E/DX2                !
 ! A5    A(1,2,4)              112.2933         estimate D2E/DX2                !
 ! A6    A(1,2,6)              112.8654         estimate D2E/DX2                !
 ! A7    A(3,2,4)              107.0783         estimate D2E/DX2                !
 ! A8    A(3,2,6)              106.6589         estimate D2E/DX2                !
 ! A9    A(4,2,6)              110.0382         estimate D2E/DX2                !
 ! A10   A(2,4,5)              144.8571         estimate D2E/DX2                !
 ! A11   A(2,4,24)             113.0227         estimate D2E/DX2                !
 ! A12   A(5,4,24)             101.8428         estimate D2E/DX2                !
 ! A13   A(4,5,28)             101.5735         estimate D2E/DX2                !
 ! A14   A(2,6,7)              107.3604         estimate D2E/DX2                !
 ! A15   A(2,6,8)              105.6209         estimate D2E/DX2                !
 ! A16   A(2,6,9)              114.9416         estimate D2E/DX2                !
 ! A17   A(7,6,8)              107.2965         estimate D2E/DX2                !
 ! A18   A(7,6,9)              110.9501         estimate D2E/DX2                !
 ! A19   A(8,6,9)              110.2692         estimate D2E/DX2                !
 ! A20   A(6,9,10)             125.7451         estimate D2E/DX2                !
 ! A21   A(6,9,12)             128.0652         estimate D2E/DX2                !
 ! A22   A(10,9,12)            106.1853         estimate D2E/DX2                !
 ! A23   A(9,10,11)            129.2679         estimate D2E/DX2                !
 ! A24   A(9,10,13)            110.2084         estimate D2E/DX2                !
 ! A25   A(11,10,13)           120.5197         estimate D2E/DX2                !
 ! A26   A(9,12,15)            107.2204         estimate D2E/DX2                !
 ! A27   A(9,12,16)            134.1927         estimate D2E/DX2                !
 ! A28   A(15,12,16)           118.5792         estimate D2E/DX2                !
 ! A29   A(10,13,14)           125.2382         estimate D2E/DX2                !
 ! A30   A(10,13,15)           109.1835         estimate D2E/DX2                !
 ! A31   A(14,13,15)           125.405          estimate D2E/DX2                !
 ! A32   A(12,15,13)           107.1977         estimate D2E/DX2                !
 ! A33   A(12,15,18)           122.4915         estimate D2E/DX2                !
 ! A34   A(13,15,18)           130.3106         estimate D2E/DX2                !
 ! A35   A(12,16,17)           120.4915         estimate D2E/DX2                !
 ! A36   A(12,16,20)           119.0801         estimate D2E/DX2                !
 ! A37   A(17,16,20)           120.4278         estimate D2E/DX2                !
 ! A38   A(15,18,19)           121.2967         estimate D2E/DX2                !
 ! A39   A(15,18,22)           117.5165         estimate D2E/DX2                !
 ! A40   A(19,18,22)           121.1865         estimate D2E/DX2                !
 ! A41   A(16,20,21)           119.5179         estimate D2E/DX2                !
 ! A42   A(16,20,22)           121.2351         estimate D2E/DX2                !
 ! A43   A(21,20,22)           119.246          estimate D2E/DX2                !
 ! A44   A(18,22,20)           121.0967         estimate D2E/DX2                !
 ! A45   A(18,22,23)           119.4026         estimate D2E/DX2                !
 ! A46   A(20,22,23)           119.5001         estimate D2E/DX2                !
 ! A47   A(4,24,26)            115.5836         estimate D2E/DX2                !
 ! A48   A(24,26,27)           105.5015         estimate D2E/DX2                !
 ! A49   A(24,26,28)            92.398          estimate D2E/DX2                !
 ! A50   A(24,26,29)           109.7795         estimate D2E/DX2                !
 ! A51   A(27,26,28)           134.1864         estimate D2E/DX2                !
 ! A52   A(27,26,29)           110.6078         estimate D2E/DX2                !
 ! A53   A(28,26,29)           101.7954         estimate D2E/DX2                !
 ! A54   A(5,28,26)            107.3062         estimate D2E/DX2                !
 ! A55   A(1,30,31)            115.7299         estimate D2E/DX2                !
 ! A56   A(1,30,34)            121.6035         estimate D2E/DX2                !
 ! A57   A(31,30,34)           122.6661         estimate D2E/DX2                !
 ! A58   A(30,31,32)           116.994          estimate D2E/DX2                !
 ! A59   A(30,31,33)           120.1837         estimate D2E/DX2                !
 ! A60   A(32,31,33)           122.8222         estimate D2E/DX2                !
 ! A61   A(31,32,35)           121.7021         estimate D2E/DX2                !
 ! A62   A(31,32,36)           120.0743         estimate D2E/DX2                !
 ! A63   A(35,32,36)           118.2231         estimate D2E/DX2                !
 ! A64   A(31,33,37)           110.7539         estimate D2E/DX2                !
 ! A65   A(31,33,38)           111.7654         estimate D2E/DX2                !
 ! A66   A(31,33,39)           111.8285         estimate D2E/DX2                !
 ! A67   A(37,33,38)           107.5552         estimate D2E/DX2                !
 ! A68   A(37,33,39)           107.4569         estimate D2E/DX2                !
 ! A69   A(38,33,39)           107.2559         estimate D2E/DX2                !
 ! D1    D(25,1,2,3)           148.3959         estimate D2E/DX2                !
 ! D2    D(25,1,2,4)            30.8457         estimate D2E/DX2                !
 ! D3    D(25,1,2,6)           -94.2403         estimate D2E/DX2                !
 ! D4    D(30,1,2,3)           -36.1481         estimate D2E/DX2                !
 ! D5    D(30,1,2,4)          -153.6983         estimate D2E/DX2                !
 ! D6    D(30,1,2,6)            81.2158         estimate D2E/DX2                !
 ! D7    D(2,1,30,31)         -179.1409         estimate D2E/DX2                !
 ! D8    D(2,1,30,34)            1.1116         estimate D2E/DX2                !
 ! D9    D(25,1,30,31)          -3.864          estimate D2E/DX2                !
 ! D10   D(25,1,30,34)         176.3885         estimate D2E/DX2                !
 ! D11   D(1,2,4,5)            158.167          estimate D2E/DX2                !
 ! D12   D(1,2,4,24)           -14.1651         estimate D2E/DX2                !
 ! D13   D(3,2,4,5)             40.3389         estimate D2E/DX2                !
 ! D14   D(3,2,4,24)          -131.9932         estimate D2E/DX2                !
 ! D15   D(6,2,4,5)            -75.2096         estimate D2E/DX2                !
 ! D16   D(6,2,4,24)           112.4583         estimate D2E/DX2                !
 ! D17   D(1,2,6,7)           -177.9936         estimate D2E/DX2                !
 ! D18   D(1,2,6,8)            -63.7346         estimate D2E/DX2                !
 ! D19   D(1,2,6,9)             58.0514         estimate D2E/DX2                !
 ! D20   D(3,2,6,7)            -60.1081         estimate D2E/DX2                !
 ! D21   D(3,2,6,8)             54.151          estimate D2E/DX2                !
 ! D22   D(3,2,6,9)            175.9369         estimate D2E/DX2                !
 ! D23   D(4,2,6,7)             55.7049         estimate D2E/DX2                !
 ! D24   D(4,2,6,8)            169.9639         estimate D2E/DX2                !
 ! D25   D(4,2,6,9)            -68.2501         estimate D2E/DX2                !
 ! D26   D(2,4,5,28)          -158.0166         estimate D2E/DX2                !
 ! D27   D(24,4,5,28)           14.7752         estimate D2E/DX2                !
 ! D28   D(2,4,24,26)         -175.256          estimate D2E/DX2                !
 ! D29   D(5,4,24,26)            9.245          estimate D2E/DX2                !
 ! D30   D(4,5,28,26)          -44.6596         estimate D2E/DX2                !
 ! D31   D(2,6,9,10)           -93.4157         estimate D2E/DX2                !
 ! D32   D(2,6,9,12)            85.7123         estimate D2E/DX2                !
 ! D33   D(7,6,9,10)           144.5503         estimate D2E/DX2                !
 ! D34   D(7,6,9,12)           -36.3218         estimate D2E/DX2                !
 ! D35   D(8,6,9,10)            25.8145         estimate D2E/DX2                !
 ! D36   D(8,6,9,12)          -155.0575         estimate D2E/DX2                !
 ! D37   D(6,9,10,11)           -1.8961         estimate D2E/DX2                !
 ! D38   D(6,9,10,13)          178.8415         estimate D2E/DX2                !
 ! D39   D(12,9,10,11)         178.8189         estimate D2E/DX2                !
 ! D40   D(12,9,10,13)          -0.4436         estimate D2E/DX2                !
 ! D41   D(6,9,12,15)         -179.2271         estimate D2E/DX2                !
 ! D42   D(6,9,12,16)            1.8327         estimate D2E/DX2                !
 ! D43   D(10,9,12,15)           0.0359         estimate D2E/DX2                !
 ! D44   D(10,9,12,16)        -178.9043         estimate D2E/DX2                !
 ! D45   D(9,10,13,14)         176.123          estimate D2E/DX2                !
 ! D46   D(9,10,13,15)           0.7021         estimate D2E/DX2                !
 ! D47   D(11,10,13,14)         -3.2142         estimate D2E/DX2                !
 ! D48   D(11,10,13,15)       -178.6351         estimate D2E/DX2                !
 ! D49   D(9,12,15,13)           0.3782         estimate D2E/DX2                !
 ! D50   D(9,12,15,18)        -179.4727         estimate D2E/DX2                !
 ! D51   D(16,12,15,13)        179.5129         estimate D2E/DX2                !
 ! D52   D(16,12,15,18)         -0.338          estimate D2E/DX2                !
 ! D53   D(9,12,16,17)          -1.1116         estimate D2E/DX2                !
 ! D54   D(9,12,16,20)         179.1598         estimate D2E/DX2                !
 ! D55   D(15,12,16,17)       -179.9588         estimate D2E/DX2                !
 ! D56   D(15,12,16,20)          0.3126         estimate D2E/DX2                !
 ! D57   D(10,13,15,12)         -0.6557         estimate D2E/DX2                !
 ! D58   D(10,13,15,18)        179.1793         estimate D2E/DX2                !
 ! D59   D(14,13,15,12)       -176.0672         estimate D2E/DX2                !
 ! D60   D(14,13,15,18)          3.7678         estimate D2E/DX2                !
 ! D61   D(12,15,18,19)        179.9253         estimate D2E/DX2                !
 ! D62   D(12,15,18,22)          0.1236         estimate D2E/DX2                !
 ! D63   D(13,15,18,19)          0.1121         estimate D2E/DX2                !
 ! D64   D(13,15,18,22)       -179.6896         estimate D2E/DX2                !
 ! D65   D(12,16,20,21)       -179.717          estimate D2E/DX2                !
 ! D66   D(12,16,20,22)         -0.0908         estimate D2E/DX2                !
 ! D67   D(17,16,20,21)          0.5543         estimate D2E/DX2                !
 ! D68   D(17,16,20,22)       -179.8195         estimate D2E/DX2                !
 ! D69   D(15,18,22,20)          0.1109         estimate D2E/DX2                !
 ! D70   D(15,18,22,23)        179.8487         estimate D2E/DX2                !
 ! D71   D(19,18,22,20)       -179.691          estimate D2E/DX2                !
 ! D72   D(19,18,22,23)          0.0468         estimate D2E/DX2                !
 ! D73   D(16,20,22,18)         -0.1289         estimate D2E/DX2                !
 ! D74   D(16,20,22,23)       -179.8665         estimate D2E/DX2                !
 ! D75   D(21,20,22,18)        179.4982         estimate D2E/DX2                !
 ! D76   D(21,20,22,23)         -0.2393         estimate D2E/DX2                !
 ! D77   D(4,24,26,27)        -174.8918         estimate D2E/DX2                !
 ! D78   D(4,24,26,28)         -37.5376         estimate D2E/DX2                !
 ! D79   D(4,24,26,29)          65.9057         estimate D2E/DX2                !
 ! D80   D(24,26,28,5)          42.1966         estimate D2E/DX2                !
 ! D81   D(27,26,28,5)         156.6369         estimate D2E/DX2                !
 ! D82   D(29,26,28,5)         -68.5815         estimate D2E/DX2                !
 ! D83   D(1,30,31,32)         179.8591         estimate D2E/DX2                !
 ! D84   D(1,30,31,33)          -0.2114         estimate D2E/DX2                !
 ! D85   D(34,30,31,32)         -0.3963         estimate D2E/DX2                !
 ! D86   D(34,30,31,33)        179.5332         estimate D2E/DX2                !
 ! D87   D(30,31,32,35)        179.8174         estimate D2E/DX2                !
 ! D88   D(30,31,32,36)          0.0703         estimate D2E/DX2                !
 ! D89   D(33,31,32,35)         -0.1101         estimate D2E/DX2                !
 ! D90   D(33,31,32,36)       -179.8572         estimate D2E/DX2                !
 ! D91   D(30,31,33,37)       -179.7317         estimate D2E/DX2                !
 ! D92   D(30,31,33,38)        -59.8233         estimate D2E/DX2                !
 ! D93   D(30,31,33,39)         60.4423         estimate D2E/DX2                !
 ! D94   D(32,31,33,37)          0.1936         estimate D2E/DX2                !
 ! D95   D(32,31,33,38)        120.102          estimate D2E/DX2                !
 ! D96   D(32,31,33,39)       -119.6324         estimate D2E/DX2                !
 --------------------------------------------------------------------------------
 Trust Radius=3.00D-01 FncErr=1.00D-07 GrdErr=1.00D-06
 Number of steps in this run=    216 maximum allowed number of steps=    234.
 GradGradGradGradGradGradGradGradGradGradGradGradGradGradGradGradGradGrad

 Leave Link  103 at Sun Jan 28 14:33:16 2024, MaxMem=    33554432 cpu:         0.0
 (Enter C:\G09W\l202.exe)
                          Input orientation:                          
 ---------------------------------------------------------------------
 Center     Atomic      Atomic             Coordinates (Angstroms)
 Number     Number       Type             X           Y           Z
 ---------------------------------------------------------------------
      1          7           0       -1.890430    0.435184   -0.004674
      2          6           0       -1.021636    1.125681    0.928089
      3          1           0       -1.658121    1.693309    1.613331
      4          6           0       -0.108423    2.125893    0.234281
      5          8           0        0.567701    3.122140    0.384291
      6          6           0       -0.175602    0.148353    1.807857
      7          1           0        0.416018    0.759377    2.498837
      8          1           0       -0.900471   -0.411083    2.407194
      9          6           0        0.702441   -0.795373    1.039731
     10          6           0        0.366481   -2.070664    0.654685
     11          1           0       -0.541599   -2.626765    0.845672
     12          6           0        2.040719   -0.563220    0.541920
     13          7           0        1.403233   -2.642953   -0.057932
     14          1           0        1.420160   -3.590930   -0.399879
     15          6           0        2.449053   -1.745936   -0.136298
     16          6           0        2.942007    0.515968    0.616020
     17          1           0        2.662920    1.432940    1.126599
     18          6           0        3.706597   -1.872163   -0.735940
     19          1           0        3.998882   -2.785437   -1.248232
     20          6           0        4.192512    0.393848    0.021525
     21          1           0        4.895437    1.220659    0.078392
     22          6           0        4.571193   -0.787508   -0.649009
     23          1           0        5.556747   -0.853259   -1.101893
     24          8           0       -0.065147    1.960786   -1.104443
     25          1           0       -1.540032    0.283730   -0.937777
     26          6           0        0.864080    2.808921   -1.806101
     27          1           0        0.699334    2.608330   -2.864932
     28          1           0        0.647579    3.689839   -1.125424
     29          1           0        1.887241    2.552207   -1.520636
     30          6           0       -3.096147   -0.073614    0.391480
     31          6           0       -3.890414   -0.785929   -0.677630
     32          6           0       -5.072788   -1.296130   -0.316844
     33          6           0       -3.344856   -0.897322   -2.081347
     34          8           0       -3.500394    0.051134    1.546969
     35          1           0       -5.708148   -1.821042   -1.024895
     36          1           0       -5.422721   -1.188091    0.704379
     37          1           0       -4.044072   -1.435896   -2.727302
     38          1           0       -3.172022    0.089705   -2.530560
     39          1           0       -2.389050   -1.438740   -2.106436
 ---------------------------------------------------------------------
                    Distance matrix (angstroms):
                    1          2          3          4          5
     1  N    0.000000
     2  C    1.449702   0.000000
     3  H    2.062713   1.094016   0.000000
     4  C    2.468025   1.521759   2.119073   0.000000
     5  O    3.662435   2.609129   2.916570   1.213324   0.000000
     6  C    2.511608   1.563629   2.150021   2.528106   3.379711
     7  H    3.419411   2.160620   2.440984   2.696408   3.174423
     8  H    2.741039   2.136370   2.373335   3.432949   4.327971
     9  C    3.054183   2.583671   3.477759   3.136885   3.974250
    10  C    3.436230   3.495460   4.380127   4.244215   5.203731
    11  H    3.452241   3.783924   4.527578   4.811361   5.873102
    12  C    4.092616   3.518456   4.463324   3.456122   3.971965
    13  N    4.508434   4.588554   5.564906   5.011226   5.842086
    14  H    5.227407   5.474695   6.438324   5.951537   6.812262
    15  C    4.858572   4.628692   5.635467   4.655005   5.244870
    16  C    4.872806   4.022388   4.852004   3.470260   3.533152
    17  H    4.796696   3.702670   4.356156   2.992784   2.791838
    18  C    6.097976   5.840569   6.856520   5.610718   6.004219
    19  H    6.826627   6.725981   7.762048   6.571831   7.024073
    20  C    6.083139   5.342731   6.200996   4.641475   4.551311
    21  H    6.831681   5.978525   6.747485   5.087471   4.736930
    22  C    6.607777   6.117783   7.076510   5.582733   5.690431
    23  H    7.637043   7.163250   8.118606   6.538720   6.550048
    24  O    2.620804   2.396551   3.161551   1.349561   1.991373
    25  H    1.008166   2.111651   2.917021   2.610898   3.774516
    26  C    4.057966   3.723576   4.393018   2.361239   2.232435
    27  H    4.428376   4.421198   5.142927   3.238879   3.292230
    28  H    4.276722   3.684848   4.099166   2.205961   1.614900
    29  H    4.588107   4.061132   4.809267   2.691496   2.386369
    30  C    1.367321   2.455576   2.585122   3.713359   4.861756
    31  C    2.438016   3.802956   4.047006   4.859398   6.022912
    32  C    3.636248   4.881276   4.931762   6.054659   7.199154
    33  C    2.864175   4.306576   4.817374   4.997645   6.127279
    34  O    2.268716   2.771625   2.468828   4.187271   5.228029
    35  H    4.550426   5.870325   5.976087   6.965683   8.112159
    36  H    3.951564   4.977262   4.827098   6.280545   7.386860
    37  H    3.943579   5.390610   5.858821   6.078375   7.192089
    38  H    2.853407   4.202340   4.694175   4.601744   5.628281
    39  H    2.859653   4.201716   4.917383   4.835993   5.978940
                    6          7          8          9         10
     6  C    0.000000
     7  H    1.095818   0.000000
     8  H    1.094353   1.763950   0.000000
     9  C    1.500532   2.151343   2.141719   0.000000
    10  C    2.558847   3.378237   2.725924   1.373862   0.000000
    11  H    2.959904   3.887923   2.734298   2.222452   1.081820
    12  C    2.649719   2.866782   3.486114   1.446616   2.255699
    13  N    3.710159   4.368926   4.045385   2.260426   1.382097
    14  H    4.626315   5.323159   4.834916   3.225327   2.129214
    15  C    3.775829   4.165785   4.412538   2.310253   2.251268
    16  C    3.357842   3.159884   4.339627   2.629601   3.650410
    17  H    3.189276   2.717590   4.211662   2.969243   4.215635
    18  C    5.062100   5.311939   5.765338   3.652046   3.623481
    19  H    5.947531   6.280378   6.557694   4.479024   4.162491
    20  C    4.725640   4.531290   5.681356   3.825126   4.594913
    21  H    5.464094   5.112390   6.455885   4.750766   5.628176
    22  C    5.426241   5.437579   6.278629   4.221273   4.585380
    23  H    6.506128   6.480196   7.362396   5.306052   5.613065
    24  O    3.431997   3.828646   4.319158   3.575344   4.419663
    25  H    3.068958   3.982799   3.475721   3.178630   3.422557
    26  C    4.606545   4.788933   5.588732   4.595196   5.487570
    27  H    5.352752   5.680573   6.282638   5.179922   5.864425
    28  H    4.671604   4.666529   5.629690   4.980766   6.035826
    29  H    4.594856   4.640571   5.655110   4.377844   5.330635
    30  C    3.253456   4.179729   2.999664   3.920515   4.005905
    31  C    4.566219   5.569854   4.312355   4.903441   4.641849
    32  C    5.530218   6.502320   5.060822   5.953514   5.579374
    33  C    5.124794   6.153610   5.134048   5.111960   4.757796
    34  O    3.336429   4.092181   2.777270   4.317139   4.500102
    35  H    6.520128   7.522012   6.072971   6.812513   6.307489
    36  H    5.525939   6.411208   4.894289   6.146893   5.856301
    37  H    6.167866   7.212777   6.107006   6.093455   5.594081
    38  H    5.272934   6.214284   5.458218   5.342453   5.228191
    39  H    4.768638   5.823115   4.862592   4.457533   3.951717
                   11         12         13         14         15
    11  H    0.000000
    12  C    3.319465   0.000000
    13  N    2.144559   2.256435   0.000000
    14  H    2.515852   3.230961   1.007906   0.000000
    15  C    3.268658   1.423212   1.380044   2.128873   0.000000
    16  C    4.697342   1.407998   3.577823   4.496074   2.434172
    17  H    5.179678   2.171092   4.427508   5.395726   3.427229
    18  C    4.595442   2.474148   2.521765   2.880085   1.398900
    19  H    5.002557   3.460823   2.859110   2.831665   2.172310
    20  C    5.675837   2.411846   4.124142   4.872574   2.764640
    21  H    6.704681   3.398014   5.209757   5.954635   3.851178
    22  C    5.635386   2.805693   3.718604   4.224956   2.384310
    23  H    6.642903   3.892133   4.641609   5.009892   3.374464
    24  O    5.007552   3.676383   4.944263   5.790000   4.582390
    25  H    3.556479   3.965931   4.242925   4.905615   4.546945
    26  C    6.209228   4.274227   5.750627   6.576076   5.103636
    27  H    6.535650   4.844036   5.995890   6.710209   5.428314
    28  H    6.723009   4.775917   6.466437   7.357506   5.811310
    29  H    6.190350   3.739462   5.418806   6.261980   4.550391
    30  C    3.640135   5.162338   5.200759   5.778823   5.815879
    31  C    4.113841   6.059310   5.644047   6.012268   6.434555
    32  C    4.863508   7.202542   6.619654   6.887044   7.537441
    33  C    4.406434   5.999798   5.448466   5.726101   6.170311
    34  O    4.051843   5.664935   5.820599   6.423916   6.438848
    35  H    5.553507   8.005121   7.223731   7.371290   8.205801
    36  H    5.090687   7.491315   7.020783   7.336078   7.936168
    37  H    5.143115   6.962331   6.185116   6.318141   6.997864
    38  H    5.069248   6.085977   5.874884   6.258994   6.379542
    39  H    3.679595   5.234805   4.475255   4.696205   5.232882
                   16         17         18         19         20
    16  C    0.000000
    17  H    1.086010   0.000000
    18  C    2.848783   3.934720   0.000000
    19  H    3.935949   5.021884   1.087172   0.000000
    20  C    1.390000   2.154194   2.438170   3.428940   0.000000
    21  H    2.145116   2.475466   3.412041   4.314226   1.086717
    22  C    2.439999   3.424132   1.389806   2.162944   1.410183
    23  H    3.415095   4.308958   2.143628   2.486296   2.162980
    24  O    3.753727   3.563498   5.390116   6.250091   4.674480
    25  H    4.749410   4.821529   5.675890   6.340011   5.813299
    26  C    3.929642   3.705385   5.580116   6.437006   4.500139
    27  H    4.639460   4.601036   5.800953   6.526366   5.043596
    28  H    4.286080   3.771843   6.359650   7.292154   4.974495
    29  H    3.134342   2.976960   4.847768   5.746623   3.514406
    30  C    6.071024   5.998079   7.126232   7.770590   7.312998
    31  C    7.074634   7.150161   7.674495   8.158714   8.198438
    32  C    8.269877   8.329017   8.808238   9.240169   9.424240
    33  C    6.985544   7.198223   7.244544   7.628207   7.931022
    34  O    6.525892   6.330287   7.800735   8.491079   7.850174
    35  H    9.109303   9.235372   9.419317   9.757375  10.199206
    36  H    8.536996   8.510327   9.267520   9.753502   9.768394
    37  H    7.987044   8.250243   8.014282   8.288427   8.873856
    38  H    6.889413   7.016099   7.374618   7.831518   7.800128
    39  H    6.297048   6.649922   6.262829   6.584511   7.155666
                   21         22         23         24         25
    21  H    0.000000
    22  C    2.160320   0.000000
    23  H    2.476195   1.086620   0.000000
    24  O    5.153085   5.408899   6.286855   0.000000
    25  H    6.582226   6.211120   7.189155   2.239549   0.000000
    26  C    4.725011   5.293000   5.994047   1.440528   3.593095
    27  H    5.309997   5.606543   6.219756   2.025603   3.759315
    28  H    5.058687   5.972299   6.688813   1.870306   4.052460
    29  H    3.657753   4.372302   5.023726   2.082022   4.151134
    30  C    8.101764   7.770480   8.815361   3.945064   2.077526
    31  C    9.043735   8.461656   9.456923   4.728560   2.595408
    32  C   10.288632   9.663095  10.667683   6.025304   3.919423
    33  C    8.777969   8.045339   8.955435   4.458656   2.441316
    34  O    8.603167   8.406911   9.479778   4.741063   3.173497
    35  H   11.086262  10.338004  11.306653   6.793527   4.670208
    36  H   10.614062  10.093089  11.132091   6.472315   4.465222
    37  H    9.738790   8.886085   9.754852   5.477496   3.525582
    38  H    8.553922   8.016677   8.895037   3.897105   2.288667
    39  H    8.056651   7.140951   8.030416   4.238076   2.247999
                   26         27         28         29         30
    26  C    0.000000
    27  H    1.090184   0.000000
    28  H    1.134112   2.048958   0.000000
    29  H    1.092818   1.794827   1.728340   0.000000
    30  C    5.368591   5.674744   5.520875   5.948553   0.000000
    31  C    6.066433   6.113188   6.389554   6.725705   1.510380
    32  C    7.369921   7.419902   7.631271   8.043682   2.429687
    33  C    5.614903   5.409166   6.155922   6.291938   2.618248
    34  O    6.156062   6.606197   6.130868   6.685221   1.230501
    35  H    8.077191   8.003805   8.412799   8.778439   3.447053
    36  H    7.861455   8.039425   7.999433   8.507412   2.598636
    37  H    6.554162   6.234950   7.130972   7.248550   3.532871
    38  H    4.920274   4.630623   5.433666   5.716643   2.927584
    39  H    5.358701   5.147058   6.040350   5.878561   2.933111
                   31         32         33         34         35
    31  C    0.000000
    32  C    1.337341   0.000000
    33  C    1.510120   2.501653   0.000000
    34  O    2.408657   2.785919   3.753457   0.000000
    35  H    2.120427   1.086532   2.748545   3.872171   0.000000
    36  H    2.102296   1.084906   3.487455   2.437412   1.863460
    37  H    2.155742   2.624519   1.093720   4.558096   2.411571
    38  H    2.171675   3.230169   1.098129   4.090912   3.514245
    39  H    2.172957   3.228843   1.098785   4.099046   3.511737
                   36         37         38         39
    36  H    0.000000
    37  H    3.706550   0.000000
    38  H    4.142854   1.768230   0.000000
    39  H    4.143268   1.767648   1.768918   0.000000
 Stoichiometry    C16H18N2O3
 Framework group  C1[X(C16H18N2O3)]
 Deg. of freedom   111
 Full point group                 C1      NOp   1
 Largest Abelian subgroup         C1      NOp   1
 Largest concise Abelian subgroup C1      NOp   1
                         Standard orientation:                         
 ---------------------------------------------------------------------
 Center     Atomic      Atomic             Coordinates (Angstroms)
 Number     Number       Type             X           Y           Z
 ---------------------------------------------------------------------
      1          7           0        1.890876    0.429656   -0.027980
      2          6           0        1.022521    1.085668   -0.985708
      3          1           0        1.659231    1.629994   -1.689400
      4          6           0        0.106614    2.108070   -0.328777
      5          8           0       -0.570825    3.097357   -0.514634
      6          6           0        0.179453    0.076772   -1.832053
      7          1           0       -0.411998    0.662273   -2.544929
      8          1           0        0.906172   -0.502124   -2.410298
      9          6           0       -0.698360   -0.840912   -1.032743
     10          6           0       -0.361030   -2.101396   -0.602761
     11          1           0        0.548230   -2.662367   -0.772735
     12          6           0       -2.037809   -0.593647   -0.545469
     13          7           0       -1.398044   -2.650071    0.127822
     14          1           0       -1.414042   -3.585523    0.502718
     15          6           0       -2.445394   -1.752559    0.173093
     16          6           0       -2.940665    0.480822   -0.658720
     17          1           0       -2.662184    1.379811   -1.200647
     18          6           0       -3.703713   -1.859758    0.774808
     19          1           0       -3.995401   -2.755013    1.318297
     20          6           0       -4.191943    0.377558   -0.062282
     21          1           0       -4.896069    1.200730   -0.149163
     22          6           0       -4.569865   -0.780215    0.648601
     23          1           0       -5.556051   -0.831672    1.101958
     24          8           0        0.061416    1.989856    1.014837
     25          1           0        1.539196    0.310389    0.909301
     26          6           0       -0.870279    2.860523    1.684912
     27          1           0       -0.706944    2.697387    2.750374
     28          1           0       -0.654051    3.717425    0.974155
     29          1           0       -1.892571    2.592314    1.407000
     30          6           0        3.098032   -0.090741   -0.404183
     31          6           0        3.891672   -0.763906    0.690455
     32          6           0        5.075429   -1.284504    0.349611
     33          6           0        3.344004   -0.826979    2.096352
     34          8           0        3.503964   -0.005860   -1.562694
     35          1           0        5.710457   -1.783278    1.076602
     36          1           0        5.426855   -1.211711   -0.674217
     37          1           0        4.043010   -1.341477    2.761864
     38          1           0        3.168892    0.174886    2.510464
     39          1           0        2.389007   -1.368737    2.138876
 ---------------------------------------------------------------------
 Rotational constants (GHZ):      0.4833670      0.2117321      0.1783953
 Leave Link  202 at Sun Jan 28 14:33:16 2024, MaxMem=    33554432 cpu:         0.0
 (Enter C:\G09W\l301.exe)
 Standard basis: 6-31G(d) (6D, 7F)
 Ernie: Thresh=  0.10000D-02 Tol=  0.10000D-05 Strict=F.
 There are   351 symmetry adapted cartesian basis functions of A   symmetry.
 There are   351 symmetry adapted basis functions of A   symmetry.
   351 basis functions,   660 primitive gaussians,   351 cartesian basis functions
    76 alpha electrons       76 beta electrons
       nuclear repulsion energy      1683.7395722867 Hartrees.
 IExCor=  402 DFT=T Ex+Corr=B3LYP ExCW=0 ScaHFX=  0.200000
 ScaDFX=  0.800000  0.720000  1.000000  0.810000 ScalE2=  1.000000  1.000000
 IRadAn=      0 IRanWt=     -1 IRanGd=            0 ICorTp=0 IEmpDi=  4
 NAtoms=   39 NActive=   39 NUniq=   39 SFac= 1.00D+00 NAtFMM=   60 NAOKFM=F Big=F
 Integral buffers will be    262144 words long.
 Raffenetti 2 integral format.
 Two-electron integral symmetry is turned on.
 Leave Link  301 at Sun Jan 28 14:33:16 2024, MaxMem=    33554432 cpu:         0.0
 (Enter C:\G09W\l302.exe)
 NPDir=0 NMtPBC=     1 NCelOv=     1 NCel=       1 NClECP=     1 NCelD=      1
         NCelK=      1 NCelE2=     1 NClLst=     1 CellRange=     0.0.
 One-electron integrals computed using PRISM.
 NBasis=   351 RedAO= T EigKep=  3.73D-04  NBF=   351
 NBsUse=   351 1.00D-06 EigRej= -1.00D+00 NBFU=   351
 Precomputing XC quadrature grid using
 IXCGrd= 4 IRadAn=           0 IRanWt=          -1 IRanGd=           0 AccXCQ= 0.00D+00.
 Generated NRdTot=       0 NPtTot=           0 NUsed=           0 NTot=          16
 NSgBfM=   348   348   348   348   348 MxSgAt=    39 MxSgA2=    39.
 Leave Link  302 at Sun Jan 28 14:33:17 2024, MaxMem=    33554432 cpu:         1.0
 (Enter C:\G09W\l303.exe)
 DipDrv:  MaxL=1.
 Leave Link  303 at Sun Jan 28 14:33:17 2024, MaxMem=    33554432 cpu:         0.0
 (Enter C:\G09W\l401.exe)
 ExpMin= 1.61D-01 ExpMax= 5.48D+03 ExpMxC= 8.25D+02 IAcc=1 IRadAn=         1 AccDes= 0.00D+00
 Harris functional with IExCor=  402 and IRadAn=       1 diagonalized for initial guess.
 HarFok:  IExCor=  402 AccDes= 0.00D+00 IRadAn=         1 IDoV= 1 UseB2=F ITyADJ=14
 ICtDFT=  3500011 ScaDFX=  1.000000  1.000000  1.000000  1.000000
 FoFCou: FMM=F IPFlag=           0 FMFlag=      100000 FMFlg1=           0
         NFxFlg=           0 DoJE=T BraDBF=F KetDBF=T FulRan=T
         wScrn=  0.000000 ICntrl=     500 IOpCl=  0 I1Cent=   200000004 NGrid=           0
         NMat0=    1 NMatS0=      1 NMatT0=    0 NMatD0=    1 NMtDS0=    0 NMtDT0=    0
 Petite list used in FoFCou.
 Harris En= -955.677996560203    
 JPrj=0 DoOrth=F DoCkMO=F.
 Leave Link  401 at Sun Jan 28 14:33:19 2024, MaxMem=    33554432 cpu:         2.0
 (Enter C:\G09W\l502.exe)
 Closed shell SCF:
 Using DIIS extrapolation, IDIIS=  1040.
 Integral symmetry usage will be decided dynamically.
 IVT=      393055 IEndB=      393055 NGot=    33554432 MDV=    33301570
 LenX=    33301570 LenY=    33177928
 Requested convergence on RMS density matrix=1.00D-08 within 128 cycles.
 Requested convergence on MAX density matrix=1.00D-06.
 Requested convergence on             energy=1.00D-06.
 No special actions if energy rises.
 Fock matrices will be formed incrementally for  20 cycles.
 Integral accuracy reduced to 1.0D-05 until final iterations.

 Cycle   1  Pass 0  IDiag  1:
 FoFJK:  IHMeth= 1 ICntrl=       0 DoSepK=F KAlg= 0 I1Cent=   0 FoldK=F
 IRaf= 760000000 NMat=   1 IRICut=       1 DoRegI=T DoRafI=F ISym2E= 0.
 FoFCou: FMM=F IPFlag=           0 FMFlag=      100000 FMFlg1=           0
         NFxFlg=           0 DoJE=F BraDBF=F KetDBF=F FulRan=T
         wScrn=  0.000000 ICntrl=       0 IOpCl=  0 I1Cent=           0 NGrid=           0
         NMat0=    1 NMatS0=      1 NMatT0=    0 NMatD0=    1 NMtDS0=    0 NMtDT0=    0
 Symmetry not used in FoFCou.
 E= -955.111240680559    
 DIIS: error= 2.67D-02 at cycle   1 NSaved=   1.
 NSaved= 1 IEnMin= 1 EnMin= -955.111240680559     IErMin= 1 ErrMin= 2.67D-02
 ErrMax= 2.67D-02  0.00D+00 EMaxC= 1.00D-01 BMatC= 5.70D-01 BMatP= 5.70D-01
 IDIUse=3 WtCom= 7.33D-01 WtEn= 2.67D-01
 Coeff-Com:  0.100D+01
 Coeff-En:   0.100D+01
 Coeff:      0.100D+01
 Gap=     0.167 Goal=   None    Shift=    0.000
 GapD=    0.167 DampG=1.000 DampE=0.500 DampFc=0.5000 IDamp=-1.
 Damping current iteration by 5.00D-01
 RMSDP=5.48D-03 MaxDP=2.15D-01              OVMax= 2.55D-01

 Cycle   2  Pass 0  IDiag  1:
 RMSU=  2.72D-03    CP:  9.81D-01
 E= -955.275069572732     Delta-E=       -0.163828892172 Rises=F Damp=T
 DIIS: error= 1.32D-02 at cycle   2 NSaved=   2.
 NSaved= 2 IEnMin= 2 EnMin= -955.275069572732     IErMin= 2 ErrMin= 1.32D-02
 ErrMax= 1.32D-02  0.00D+00 EMaxC= 1.00D-01 BMatC= 9.18D-02 BMatP= 5.70D-01
 IDIUse=3 WtCom= 8.68D-01 WtEn= 1.32D-01
 Coeff-Com:  0.205D+00 0.795D+00
 Coeff-En:   0.310D+00 0.690D+00
 Coeff:      0.219D+00 0.781D+00
 Gap=     0.247 Goal=   None    Shift=    0.000
 RMSDP=1.88D-03 MaxDP=1.03D-01 DE=-1.64D-01 OVMax= 1.86D-01

 Cycle   3  Pass 0  IDiag  1:
 RMSU=  1.66D-03    CP:  9.65D-01  7.00D-01
 E= -955.562591645057     Delta-E=       -0.287522072326 Rises=F Damp=F
 DIIS: error= 1.78D-02 at cycle   3 NSaved=   3.
 NSaved= 3 IEnMin= 3 EnMin= -955.562591645057     IErMin= 2 ErrMin= 1.32D-02
 ErrMax= 1.78D-02  0.00D+00 EMaxC= 1.00D-01 BMatC= 1.03D-01 BMatP= 9.18D-02
 IDIUse=2 WtCom= 0.00D+00 WtEn= 1.00D+00
 Coeff-En:   0.000D+00 0.000D+00 0.100D+01
 Coeff:      0.000D+00 0.000D+00 0.100D+01
 Gap=     0.176 Goal=   None    Shift=    0.000
 RMSDP=2.99D-03 MaxDP=1.67D-01 DE=-2.88D-01 OVMax= 2.90D-01

 Cycle   4  Pass 0  IDiag  1:
 RMSU=  1.72D-03    CP:  9.73D-01  1.18D+00 -2.44D-01
 E= -955.130362094243     Delta-E=        0.432229550814 Rises=F Damp=F
 DIIS: error= 4.49D-02 at cycle   4 NSaved=   4.
 NSaved= 4 IEnMin= 3 EnMin= -955.562591645057     IErMin= 2 ErrMin= 1.32D-02
 ErrMax= 4.49D-02  0.00D+00 EMaxC= 1.00D-01 BMatC= 6.41D-01 BMatP= 9.18D-02
 IDIUse=2 WtCom= 0.00D+00 WtEn= 1.00D+00
 Coeff-En:   0.000D+00 0.000D+00 0.800D+00 0.200D+00
 Coeff:      0.000D+00 0.000D+00 0.800D+00 0.200D+00
 Gap=     0.196 Goal=   None    Shift=    0.000
 RMSDP=1.66D-03 MaxDP=1.07D-01 DE= 4.32D-01 OVMax= 1.47D-01

 Cycle   5  Pass 0  IDiag  1:
 RMSU=  2.75D-04    CP:  9.70D-01  8.42D-01  3.90D-01  5.04D-01
 E= -955.614532572615     Delta-E=       -0.484170478372 Rises=F Damp=F
 DIIS: error= 1.10D-02 at cycle   5 NSaved=   5.
 NSaved= 5 IEnMin= 5 EnMin= -955.614532572615     IErMin= 5 ErrMin= 1.10D-02
 ErrMax= 1.10D-02  0.00D+00 EMaxC= 1.00D-01 BMatC= 4.41D-02 BMatP= 9.18D-02
 IDIUse=3 WtCom= 8.90D-01 WtEn= 1.10D-01
 Coeff-Com: -0.231D-02 0.334D-01 0.338D+00-0.568D-01 0.688D+00
 Coeff-En:   0.000D+00 0.000D+00 0.340D+00 0.000D+00 0.660D+00
 Coeff:     -0.205D-02 0.297D-01 0.338D+00-0.506D-01 0.685D+00
 Gap=     0.172 Goal=   None    Shift=    0.000
 RMSDP=5.89D-04 MaxDP=2.85D-02 DE=-4.84D-01 OVMax= 4.10D-02

 Cycle   6  Pass 0  IDiag  1:
 RMSU=  1.11D-04    CP:  9.68D-01  7.70D-01  6.35D-01  3.02D-01  6.55D-01
 E= -955.651547455569     Delta-E=       -0.037014882953 Rises=F Damp=F
 DIIS: error= 1.08D-03 at cycle   6 NSaved=   6.
 NSaved= 6 IEnMin= 6 EnMin= -955.651547455569     IErMin= 6 ErrMin= 1.08D-03
 ErrMax= 1.08D-03  0.00D+00 EMaxC= 1.00D-01 BMatC= 5.03D-04 BMatP= 4.41D-02
 IDIUse=3 WtCom= 9.89D-01 WtEn= 1.08D-02
 Coeff-Com: -0.652D-02 0.202D-01 0.157D+00-0.571D-01 0.438D+00 0.448D+00
 Coeff-En:   0.000D+00 0.000D+00 0.000D+00 0.000D+00 0.000D+00 0.100D+01
 Coeff:     -0.645D-02 0.200D-01 0.156D+00-0.565D-01 0.434D+00 0.454D+00
 Gap=     0.173 Goal=   None    Shift=    0.000
 RMSDP=7.68D-05 MaxDP=3.15D-03 DE=-3.70D-02 OVMax= 1.09D-02

 Cycle   7  Pass 0  IDiag  1:
 RMSU=  2.92D-05    CP:  9.68D-01  7.79D-01  6.25D-01  3.04D-01  7.65D-01
                    CP:  4.85D-01
 E= -955.652028781062     Delta-E=       -0.000481325493 Rises=F Damp=F
 DIIS: error= 2.47D-04 at cycle   7 NSaved=   7.
 NSaved= 7 IEnMin= 7 EnMin= -955.652028781062     IErMin= 7 ErrMin= 2.47D-04
 ErrMax= 2.47D-04  0.00D+00 EMaxC= 1.00D-01 BMatC= 2.61D-05 BMatP= 5.03D-04
 IDIUse=3 WtCom= 9.98D-01 WtEn= 2.47D-03
 Coeff-Com: -0.308D-02 0.842D-02 0.608D-01-0.269D-01 0.183D+00 0.245D+00
 Coeff-Com:  0.533D+00
 Coeff-En:   0.000D+00 0.000D+00 0.000D+00 0.000D+00 0.000D+00 0.000D+00
 Coeff-En:   0.100D+01
 Coeff:     -0.307D-02 0.840D-02 0.607D-01-0.268D-01 0.182D+00 0.244D+00
 Coeff:      0.534D+00
 Gap=     0.173 Goal=   None    Shift=    0.000
 RMSDP=1.82D-05 MaxDP=7.58D-04 DE=-4.81D-04 OVMax= 2.12D-03

 Cycle   8  Pass 0  IDiag  1:
 RMSU=  1.04D-05    CP:  9.68D-01  7.78D-01  6.27D-01  3.05D-01  7.55D-01
                    CP:  5.50D-01  6.12D-01
 E= -955.652050516537     Delta-E=       -0.000021735476 Rises=F Damp=F
 DIIS: error= 7.25D-05 at cycle   8 NSaved=   8.
 NSaved= 8 IEnMin= 8 EnMin= -955.652050516537     IErMin= 8 ErrMin= 7.25D-05
 ErrMax= 7.25D-05  0.00D+00 EMaxC= 1.00D-01 BMatC= 4.27D-06 BMatP= 2.61D-05
 IDIUse=1 WtCom= 1.00D+00 WtEn= 0.00D+00
 Coeff-Com: -0.519D-03 0.887D-03 0.126D-01-0.622D-02 0.378D-01 0.787D-01
 Coeff-Com:  0.332D+00 0.545D+00
 Coeff:     -0.519D-03 0.887D-03 0.126D-01-0.622D-02 0.378D-01 0.787D-01
 Coeff:      0.332D+00 0.545D+00
 Gap=     0.173 Goal=   None    Shift=    0.000
 RMSDP=6.43D-06 MaxDP=2.78D-04 DE=-2.17D-05 OVMax= 5.18D-04

 Initial convergence to 1.0D-05 achieved.  Increase integral accuracy.
 Cycle   9  Pass 1  IDiag  1:
 E= -955.652080788743     Delta-E=       -0.000030272205 Rises=F Damp=F
 DIIS: error= 4.01D-05 at cycle   1 NSaved=   1.
 NSaved= 1 IEnMin= 1 EnMin= -955.652080788743     IErMin= 1 ErrMin= 4.01D-05
 ErrMax= 4.01D-05  0.00D+00 EMaxC= 1.00D-01 BMatC= 1.05D-06 BMatP= 1.05D-06
 IDIUse=1 WtCom= 1.00D+00 WtEn= 0.00D+00
 Coeff-Com:  0.100D+01
 Coeff:      0.100D+01
 Gap=     0.173 Goal=   None    Shift=    0.000
 RMSDP=6.43D-06 MaxDP=2.78D-04 DE=-3.03D-05 OVMax= 4.69D-04

 Cycle  10  Pass 1  IDiag  1:
 RMSU=  3.05D-05    CP:  1.00D+00
 E= -955.652081037824     Delta-E=       -0.000000249081 Rises=F Damp=F
 DIIS: error= 3.68D-05 at cycle   2 NSaved=   2.
 NSaved= 2 IEnMin= 2 EnMin= -955.652081037824     IErMin= 2 ErrMin= 3.68D-05
 ErrMax= 3.68D-05  0.00D+00 EMaxC= 1.00D-01 BMatC= 8.77D-07 BMatP= 1.05D-06
 IDIUse=1 WtCom= 1.00D+00 WtEn= 0.00D+00
 Coeff-Com:  0.469D+00 0.531D+00
 Coeff:      0.469D+00 0.531D+00
 Gap=     0.173 Goal=   None    Shift=    0.000
 RMSDP=4.46D-06 MaxDP=1.62D-04 DE=-2.49D-07 OVMax= 5.80D-04

 Cycle  11  Pass 1  IDiag  1:
 RMSU=  4.45D-06    CP:  1.00D+00  9.87D-01
 E= -955.652081554216     Delta-E=       -0.000000516392 Rises=F Damp=F
 DIIS: error= 2.57D-05 at cycle   3 NSaved=   3.
 NSaved= 3 IEnMin= 3 EnMin= -955.652081554216     IErMin= 3 ErrMin= 2.57D-05
 ErrMax= 2.57D-05  0.00D+00 EMaxC= 1.00D-01 BMatC= 3.38D-07 BMatP= 8.77D-07
 IDIUse=1 WtCom= 1.00D+00 WtEn= 0.00D+00
 Coeff-Com:  0.168D-01 0.380D+00 0.604D+00
 Coeff:      0.168D-01 0.380D+00 0.604D+00
 Gap=     0.173 Goal=   None    Shift=    0.000
 RMSDP=2.10D-06 MaxDP=7.48D-05 DE=-5.16D-07 OVMax= 2.77D-04

 Cycle  12  Pass 1  IDiag  1:
 RMSU=  7.48D-07    CP:  1.00D+00  1.00D+00  5.71D-01
 E= -955.652081877160     Delta-E=       -0.000000322945 Rises=F Damp=F
 DIIS: error= 7.10D-06 at cycle   4 NSaved=   4.
 NSaved= 4 IEnMin= 4 EnMin= -955.652081877160     IErMin= 4 ErrMin= 7.10D-06
 ErrMax= 7.10D-06  0.00D+00 EMaxC= 1.00D-01 BMatC= 2.48D-08 BMatP= 3.38D-07
 IDIUse=1 WtCom= 1.00D+00 WtEn= 0.00D+00
 Coeff-Com: -0.821D-02 0.219D+00 0.382D+00 0.407D+00
 Coeff:     -0.821D-02 0.219D+00 0.382D+00 0.407D+00
 Gap=     0.173 Goal=   None    Shift=    0.000
 RMSDP=4.62D-07 MaxDP=1.73D-05 DE=-3.23D-07 OVMax= 4.45D-05

 Cycle  13  Pass 1  IDiag  1:
 RMSU=  1.76D-07    CP:  1.00D+00  1.00D+00  6.13D-01  4.85D-01
 E= -955.652081899357     Delta-E=       -0.000000022197 Rises=F Damp=F
 DIIS: error= 6.45D-07 at cycle   5 NSaved=   5.
 NSaved= 5 IEnMin= 5 EnMin= -955.652081899357     IErMin= 5 ErrMin= 6.45D-07
 ErrMax= 6.45D-07  0.00D+00 EMaxC= 1.00D-01 BMatC= 3.48D-10 BMatP= 2.48D-08
 IDIUse=1 WtCom= 1.00D+00 WtEn= 0.00D+00
 Coeff-Com: -0.463D-02 0.932D-01 0.166D+00 0.200D+00 0.546D+00
 Coeff:     -0.463D-02 0.932D-01 0.166D+00 0.200D+00 0.546D+00
 Gap=     0.173 Goal=   None    Shift=    0.000
 RMSDP=6.91D-08 MaxDP=3.22D-06 DE=-2.22D-08 OVMax= 3.39D-06

 Cycle  14  Pass 1  IDiag  1:
 RMSU=  6.18D-08    CP:  1.00D+00  1.00D+00  6.13D-01  4.89D-01  8.27D-01
 E= -955.652081899690     Delta-E=       -0.000000000333 Rises=F Damp=F
 DIIS: error= 3.16D-07 at cycle   6 NSaved=   6.
 NSaved= 6 IEnMin= 6 EnMin= -955.652081899690     IErMin= 6 ErrMin= 3.16D-07
 ErrMax= 3.16D-07  0.00D+00 EMaxC= 1.00D-01 BMatC= 3.84D-11 BMatP= 3.48D-10
 IDIUse=1 WtCom= 1.00D+00 WtEn= 0.00D+00
 Coeff-Com: -0.138D-02 0.222D-01 0.402D-01 0.560D-01 0.277D+00 0.606D+00
 Coeff:     -0.138D-02 0.222D-01 0.402D-01 0.560D-01 0.277D+00 0.606D+00
 Gap=     0.173 Goal=   None    Shift=    0.000
 RMSDP=2.49D-08 MaxDP=1.54D-06 DE=-3.33D-10 OVMax= 1.69D-06

 Cycle  15  Pass 1  IDiag  1:
 RMSU=  2.07D-08    CP:  1.00D+00  1.00D+00  6.13D-01  4.92D-01  8.69D-01
                    CP:  8.19D-01
 E= -955.652081899588     Delta-E=        0.000000000103 Rises=F Damp=F
 DIIS: error= 2.25D-07 at cycle   7 NSaved=   7.
 NSaved= 7 IEnMin= 6 EnMin= -955.652081899690     IErMin= 7 ErrMin= 2.25D-07
 ErrMax= 2.25D-07  0.00D+00 EMaxC= 1.00D-01 BMatC= 1.48D-11 BMatP= 3.84D-11
 IDIUse=1 WtCom= 1.00D+00 WtEn= 0.00D+00
 Coeff-Com: -0.191D-03 0.703D-04 0.646D-03 0.649D-02 0.102D+00 0.421D+00
 Coeff-Com:  0.470D+00
 Coeff:     -0.191D-03 0.703D-04 0.646D-03 0.649D-02 0.102D+00 0.421D+00
 Coeff:      0.470D+00
 Gap=     0.173 Goal=   None    Shift=    0.000
 RMSDP=1.23D-08 MaxDP=7.08D-07 DE= 1.03D-10 OVMax= 1.09D-06

 Cycle  16  Pass 1  IDiag  1:
 RMSU=  6.16D-09    CP:  1.00D+00  1.00D+00  6.13D-01  4.95D-01  8.72D-01
                    CP:  8.45D-01  5.01D-01
 E= -955.652081899647     Delta-E=       -0.000000000059 Rises=F Damp=F
 DIIS: error= 4.58D-08 at cycle   8 NSaved=   8.
 NSaved= 8 IEnMin= 6 EnMin= -955.652081899690     IErMin= 8 ErrMin= 4.58D-08
 ErrMax= 4.58D-08  0.00D+00 EMaxC= 1.00D-01 BMatC= 9.18D-13 BMatP= 1.48D-11
 IDIUse=1 WtCom= 1.00D+00 WtEn= 0.00D+00
 Coeff-Com:  0.199D-04-0.200D-02-0.334D-02-0.148D-02 0.306D-01 0.174D+00
 Coeff-Com:  0.273D+00 0.529D+00
 Coeff:      0.199D-04-0.200D-02-0.334D-02-0.148D-02 0.306D-01 0.174D+00
 Coeff:      0.273D+00 0.529D+00
 Gap=     0.173 Goal=   None    Shift=    0.000
 RMSDP=3.22D-09 MaxDP=1.53D-07 DE=-5.91D-11 OVMax= 2.17D-07

 SCF Done:  E(RB3LYP) =  -955.652081900     A.U. after   16 cycles
            NFock= 16  Conv=0.32D-08     -V/T= 2.0091
 KE= 9.469983790435D+02 PE=-5.591586519864D+03 EE= 2.005196486634D+03
 Leave Link  502 at Sun Jan 28 14:35:10 2024, MaxMem=    33554432 cpu:       111.0
 (Enter C:\G09W\l601.exe)
 Copying SCF densities to generalized density rwf, IOpCl= 0 IROHF=0.

 **********************************************************************

            Population analysis using the SCF density.

 **********************************************************************

 Orbital symmetries:
       Occupied  (A) (A) (A) (A) (A) (A) (A) (A) (A) (A) (A) (A)
                 (A) (A) (A) (A) (A) (A) (A) (A) (A) (A) (A) (A)
                 (A) (A) (A) (A) (A) (A) (A) (A) (A) (A) (A) (A)
                 (A) (A) (A) (A) (A) (A) (A) (A) (A) (A) (A) (A)
                 (A) (A) (A) (A) (A) (A) (A) (A) (A) (A) (A) (A)
                 (A) (A) (A) (A) (A) (A) (A) (A) (A) (A) (A) (A)
                 (A) (A) (A) (A)
       Virtual   (A) (A) (A) (A) (A) (A) (A) (A) (A) (A) (A) (A)
                 (A) (A) (A) (A) (A) (A) (A) (A) (A) (A) (A) (A)
                 (A) (A) (A) (A) (A) (A) (A) (A) (A) (A) (A) (A)
                 (A) (A) (A) (A) (A) (A) (A) (A) (A) (A) (A) (A)
                 (A) (A) (A) (A) (A) (A) (A) (A) (A) (A) (A) (A)
                 (A) (A) (A) (A) (A) (A) (A) (A) (A) (A) (A) (A)
                 (A) (A) (A) (A) (A) (A) (A) (A) (A) (A) (A) (A)
                 (A) (A) (A) (A) (A) (A) (A) (A) (A) (A) (A) (A)
                 (A) (A) (A) (A) (A) (A) (A) (A) (A) (A) (A) (A)
                 (A) (A) (A) (A) (A) (A) (A) (A) (A) (A) (A) (A)
                 (A) (A) (A) (A) (A) (A) (A) (A) (A) (A) (A) (A)
                 (A) (A) (A) (A) (A) (A) (A) (A) (A) (A) (A) (A)
                 (A) (A) (A) (A) (A) (A) (A) (A) (A) (A) (A) (A)
                 (A) (A) (A) (A) (A) (A) (A) (A) (A) (A) (A) (A)
                 (A) (A) (A) (A) (A) (A) (A) (A) (A) (A) (A) (A)
                 (A) (A) (A) (A) (A) (A) (A) (A) (A) (A) (A) (A)
                 (A) (A) (A) (A) (A) (A) (A) (A) (A) (A) (A) (A)
                 (A) (A) (A) (A) (A) (A) (A) (A) (A) (A) (A) (A)
                 (A) (A) (A) (A) (A) (A) (A) (A) (A) (A) (A) (A)
                 (A) (A) (A) (A) (A) (A) (A) (A) (A) (A) (A) (A)
                 (A) (A) (A) (A) (A) (A) (A) (A) (A) (A) (A) (A)
                 (A) (A) (A) (A) (A) (A) (A) (A) (A) (A) (A) (A)
                 (A) (A) (A) (A) (A) (A) (A) (A) (A) (A) (A)
 The electronic state is 1-A.
 Alpha  occ. eigenvalues --  -19.17138 -19.13402 -19.11050 -14.38342 -14.36602
 Alpha  occ. eigenvalues --  -10.32126 -10.28943 -10.25720 -10.22230 -10.22021
 Alpha  occ. eigenvalues --  -10.21750 -10.20799 -10.20250 -10.19895 -10.19163
 Alpha  occ. eigenvalues --  -10.19012 -10.18560 -10.18507 -10.18481 -10.18378
 Alpha  occ. eigenvalues --  -10.17975  -1.12578  -1.03179  -0.98697  -0.98119
 Alpha  occ. eigenvalues --   -0.93107  -0.83773  -0.81941  -0.80146  -0.77014
 Alpha  occ. eigenvalues --   -0.73479  -0.72883  -0.70999  -0.70015  -0.66729
 Alpha  occ. eigenvalues --   -0.62382  -0.61869  -0.59449  -0.58352  -0.55917
 Alpha  occ. eigenvalues --   -0.54020  -0.53913  -0.53352  -0.49486  -0.48716
 Alpha  occ. eigenvalues --   -0.48489  -0.47425  -0.46951  -0.46414  -0.45228
 Alpha  occ. eigenvalues --   -0.44808  -0.43404  -0.43231  -0.42772  -0.42258
 Alpha  occ. eigenvalues --   -0.41590  -0.41475  -0.40442  -0.39277  -0.38768
 Alpha  occ. eigenvalues --   -0.38498  -0.37446  -0.36453  -0.35855  -0.35083
 Alpha  occ. eigenvalues --   -0.33297  -0.33273  -0.32704  -0.28535  -0.27669
 Alpha  occ. eigenvalues --   -0.26741  -0.26206  -0.25480  -0.24777  -0.22262
 Alpha  occ. eigenvalues --   -0.20424
 Alpha virt. eigenvalues --   -0.03088  -0.01124  -0.00303   0.02710   0.05660
 Alpha virt. eigenvalues --    0.07308   0.08200   0.08597   0.10098   0.11473
 Alpha virt. eigenvalues --    0.11695   0.12114   0.13138   0.14248   0.14343
 Alpha virt. eigenvalues --    0.14693   0.15703   0.16398   0.16705   0.16840
 Alpha virt. eigenvalues --    0.17255   0.17696   0.17873   0.18373   0.19247
 Alpha virt. eigenvalues --    0.19903   0.20462   0.21922   0.23530   0.23943
 Alpha virt. eigenvalues --    0.24166   0.25869   0.27660   0.28079   0.30997
 Alpha virt. eigenvalues --    0.32010   0.32807   0.33850   0.34253   0.34824
 Alpha virt. eigenvalues --    0.36359   0.38606   0.39943   0.41525   0.43550
 Alpha virt. eigenvalues --    0.47663   0.48707   0.49689   0.51001   0.51341
 Alpha virt. eigenvalues --    0.52090   0.52588   0.52802   0.53818   0.54253
 Alpha virt. eigenvalues --    0.55085   0.56369   0.56572   0.57292   0.58595
 Alpha virt. eigenvalues --    0.58941   0.59473   0.60353   0.60894   0.61700
 Alpha virt. eigenvalues --    0.61921   0.62423   0.62602   0.63031   0.64067
 Alpha virt. eigenvalues --    0.65679   0.66047   0.66344   0.66955   0.68768
 Alpha virt. eigenvalues --    0.69017   0.69639   0.69786   0.71782   0.73544
 Alpha virt. eigenvalues --    0.75295   0.75642   0.77090   0.77869   0.78282
 Alpha virt. eigenvalues --    0.79489   0.80933   0.81098   0.81902   0.82287
 Alpha virt. eigenvalues --    0.83365   0.83543   0.84042   0.84923   0.85484
 Alpha virt. eigenvalues --    0.85737   0.86511   0.87041   0.88140   0.89510
 Alpha virt. eigenvalues --    0.89781   0.90618   0.91659   0.92339   0.92950
 Alpha virt. eigenvalues --    0.93105   0.93503   0.95025   0.95767   0.96793
 Alpha virt. eigenvalues --    0.97516   0.98834   0.99268   1.00294   1.01048
 Alpha virt. eigenvalues --    1.04068   1.04535   1.05854   1.08279   1.08788
 Alpha virt. eigenvalues --    1.09658   1.11153   1.12236   1.13094   1.14765
 Alpha virt. eigenvalues --    1.16086   1.17423   1.18420   1.19484   1.20828
 Alpha virt. eigenvalues --    1.23682   1.25102   1.26240   1.28280   1.32105
 Alpha virt. eigenvalues --    1.33548   1.33890   1.35914   1.36628   1.37399
 Alpha virt. eigenvalues --    1.37730   1.39018   1.40615   1.41799   1.42183
 Alpha virt. eigenvalues --    1.43293   1.45040   1.45970   1.47137   1.47899
 Alpha virt. eigenvalues --    1.49797   1.50551   1.51847   1.52717   1.53450
 Alpha virt. eigenvalues --    1.54764   1.59408   1.61086   1.65167   1.65875
 Alpha virt. eigenvalues --    1.66397   1.71796   1.72966   1.76436   1.77061
 Alpha virt. eigenvalues --    1.78639   1.79784   1.80225   1.80765   1.81700
 Alpha virt. eigenvalues --    1.82412   1.84230   1.85111   1.87501   1.87894
 Alpha virt. eigenvalues --    1.89815   1.90656   1.91228   1.91782   1.92587
 Alpha virt. eigenvalues --    1.93378   1.95988   1.97421   1.98733   2.00396
 Alpha virt. eigenvalues --    2.00856   2.02385   2.03066   2.04088   2.04500
 Alpha virt. eigenvalues --    2.05366   2.07042   2.07260   2.09530   2.09782
 Alpha virt. eigenvalues --    2.12598   2.14216   2.15164   2.16718   2.18177
 Alpha virt. eigenvalues --    2.18838   2.22113   2.23520   2.24305   2.25198
 Alpha virt. eigenvalues --    2.25941   2.26989   2.27687   2.28167   2.29216
 Alpha virt. eigenvalues --    2.31415   2.33035   2.34255   2.36325   2.37279
 Alpha virt. eigenvalues --    2.38383   2.40429   2.40852   2.42753   2.44328
 Alpha virt. eigenvalues --    2.45774   2.45901   2.50192   2.50410   2.51544
 Alpha virt. eigenvalues --    2.54095   2.55649   2.56529   2.59662   2.61060
 Alpha virt. eigenvalues --    2.65146   2.67207   2.68955   2.69533   2.71284
 Alpha virt. eigenvalues --    2.73859   2.76596   2.77289   2.78410   2.82031
 Alpha virt. eigenvalues --    2.82669   2.83225   2.86517   2.92485   2.95139
 Alpha virt. eigenvalues --    2.97822   2.99665   3.06592   3.07486   3.12472
 Alpha virt. eigenvalues --    3.14922   3.20888   3.24830   3.44023   3.99516
 Alpha virt. eigenvalues --    4.00641   4.03711   4.05209   4.09751   4.13140
 Alpha virt. eigenvalues --    4.16060   4.16763   4.18223   4.21000   4.22385
 Alpha virt. eigenvalues --    4.26139   4.28935   4.36886   4.40874   4.41625
 Alpha virt. eigenvalues --    4.49148   4.56706   4.61539   4.73337   4.82897
          Condensed to atoms (all electrons):
               1          2          3          4          5          6
     1  N    7.246126   0.235959  -0.050216  -0.029281   0.000670  -0.053718
     2  C    0.235959   5.053929   0.367776   0.312229  -0.036967   0.321939
     3  H   -0.050216   0.367776   0.529241  -0.039481  -0.000315  -0.035524
     4  C   -0.029281   0.312229  -0.039481   4.406317   0.503543  -0.035157
     5  O    0.000670  -0.036967  -0.000315   0.503543   8.277508   0.000546
     6  C   -0.053718   0.321939  -0.035524  -0.035157   0.000546   5.263759
     7  H    0.004719  -0.042810   0.001578  -0.002989   0.001019   0.349068
     8  H   -0.008870  -0.031159  -0.006329   0.005392   0.000009   0.363473
     9  C   -0.009642  -0.042690   0.005071  -0.010089  -0.000624   0.356658
    10  C    0.006307  -0.005105   0.000089  -0.000625  -0.000007  -0.086810
    11  H    0.000225   0.000034  -0.000004   0.000026   0.000000  -0.002595
    12  C   -0.000838  -0.001792  -0.000049   0.002587  -0.000475  -0.055411
    13  N   -0.000073   0.000078   0.000000   0.000003   0.000000   0.005230
    14  H   -0.000002   0.000000   0.000000   0.000000   0.000000  -0.000099
    15  C    0.000064  -0.000019   0.000003  -0.000109   0.000000   0.010489
    16  C    0.000016   0.000298  -0.000021   0.002755  -0.003157  -0.013322
    17  H    0.000009  -0.000677   0.000021   0.002239   0.007679   0.002885
    18  C    0.000001   0.000001   0.000000  -0.000003   0.000000  -0.000198
    19  H    0.000000   0.000000   0.000000   0.000000   0.000000   0.000002
    20  C    0.000000  -0.000003   0.000000   0.000000   0.000024   0.000036
    21  H    0.000000   0.000000   0.000000  -0.000001  -0.000004   0.000000
    22  C    0.000000  -0.000001   0.000000  -0.000002   0.000001   0.000005
    23  H    0.000000   0.000000   0.000000   0.000000   0.000000   0.000000
    24  O   -0.008807  -0.072898   0.002232   0.302263  -0.186677  -0.002598
    25  H    0.279044  -0.033460   0.004419  -0.004607   0.000450   0.000107
    26  C    0.000258   0.004266  -0.000102  -0.037425  -0.060406  -0.000098
    27  H   -0.000041   0.000027   0.000003   0.004745   0.004382  -0.000004
    28  H   -0.000064  -0.000639   0.000094  -0.022024   0.014910  -0.000098
    29  H    0.000011  -0.000313  -0.000020  -0.004588   0.006019   0.000132
    30  C    0.234953  -0.017372  -0.000430   0.003786  -0.000015  -0.003516
    31  C   -0.108089   0.007090   0.000690   0.000041   0.000000  -0.000562
    32  C    0.007941  -0.000241  -0.000013   0.000000   0.000000   0.000017
    33  C   -0.004397   0.000144  -0.000036  -0.000078   0.000000   0.000023
    34  O   -0.115264   0.009551   0.013994   0.000907   0.000000  -0.005578
    35  H   -0.000107   0.000001   0.000000   0.000000   0.000000   0.000000
    36  H    0.000705  -0.000021  -0.000008   0.000000   0.000000   0.000003
    37  H    0.000167   0.000003   0.000001   0.000000   0.000000   0.000000
    38  H    0.001527   0.000009  -0.000011   0.000017   0.000000   0.000008
    39  H    0.000865  -0.000030   0.000003   0.000004   0.000000  -0.000014
               7          8          9         10         11         12
     1  N    0.004719  -0.008870  -0.009642   0.006307   0.000225  -0.000838
     2  C   -0.042810  -0.031159  -0.042690  -0.005105   0.000034  -0.001792
     3  H    0.001578  -0.006329   0.005071   0.000089  -0.000004  -0.000049
     4  C   -0.002989   0.005392  -0.010089  -0.000625   0.000026   0.002587
     5  O    0.001019   0.000009  -0.000624  -0.000007   0.000000  -0.000475
     6  C    0.349068   0.363473   0.356658  -0.086810  -0.002595  -0.055411
     7  H    0.570034  -0.027701  -0.023607   0.004194  -0.000039  -0.005566
     8  H   -0.027701   0.536347  -0.028867  -0.005719   0.003023   0.003171
     9  C   -0.023607  -0.028867   4.950113   0.500217  -0.029021   0.395871
    10  C    0.004194  -0.005719   0.500217   5.045458   0.363744   0.013930
    11  H   -0.000039   0.003023  -0.029021   0.363744   0.550312   0.003468
    12  C   -0.005566   0.003171   0.395871   0.013930   0.003468   4.804442
    13  N   -0.000073   0.000004  -0.055721   0.314712  -0.049173  -0.053241
    14  H    0.000004  -0.000005   0.004194  -0.031030  -0.002014   0.007045
    15  C   -0.000202  -0.000059   0.009705  -0.136018   0.004834   0.449604
    16  C    0.003292  -0.000014  -0.111108   0.016163  -0.000149   0.482495
    17  H    0.001988  -0.000029  -0.007973  -0.000162  -0.000002  -0.039681
    18  C   -0.000005   0.000003   0.012981   0.004949  -0.000116  -0.048870
    19  H    0.000000   0.000000  -0.000228  -0.000035   0.000001   0.004436
    20  C   -0.000009   0.000002   0.007895  -0.000409   0.000004  -0.002052
    21  H    0.000001   0.000000  -0.000181   0.000005   0.000000   0.002441
    22  C    0.000001   0.000000  -0.000122  -0.000043   0.000002  -0.037484
    23  H    0.000000   0.000000   0.000010   0.000002   0.000000   0.000993
    24  O    0.000221  -0.000087   0.002659   0.000046  -0.000001  -0.000278
    25  H   -0.000048  -0.000130   0.002882   0.001089   0.000011  -0.000022
    26  C   -0.000006   0.000006   0.000016   0.000001   0.000000   0.000087
    27  H    0.000000   0.000000   0.000000   0.000000   0.000000  -0.000005
    28  H    0.000004   0.000000   0.000021   0.000000   0.000000   0.000025
    29  H   -0.000008   0.000000  -0.000188  -0.000005   0.000000  -0.000011
    30  C    0.000112   0.003770   0.000287   0.000633   0.000509   0.000000
    31  C    0.000004   0.000112   0.000084  -0.000022   0.000178   0.000002
    32  C    0.000000  -0.000009   0.000000  -0.000005   0.000015   0.000000
    33  C    0.000000  -0.000011  -0.000053  -0.000218  -0.000014   0.000002
    34  O   -0.000015   0.008620   0.000088  -0.000070   0.000005   0.000000
    35  H    0.000000   0.000000   0.000000   0.000000   0.000000   0.000000
    36  H    0.000000  -0.000006   0.000000   0.000000   0.000000   0.000000
    37  H    0.000000   0.000000   0.000000  -0.000001   0.000000   0.000000
    38  H    0.000000   0.000000   0.000000  -0.000004   0.000001   0.000000
    39  H    0.000001   0.000003   0.000053   0.000779   0.000086  -0.000007
              13         14         15         16         17         18
     1  N   -0.000073  -0.000002   0.000064   0.000016   0.000009   0.000001
     2  C    0.000078   0.000000  -0.000019   0.000298  -0.000677   0.000001
     3  H    0.000000   0.000000   0.000003  -0.000021   0.000021   0.000000
     4  C    0.000003   0.000000  -0.000109   0.002755   0.002239  -0.000003
     5  O    0.000000   0.000000   0.000000  -0.003157   0.007679   0.000000
     6  C    0.005230  -0.000099   0.010489  -0.013322   0.002885  -0.000198
     7  H   -0.000073   0.000004  -0.000202   0.003292   0.001988  -0.000005
     8  H    0.000004  -0.000005  -0.000059  -0.000014  -0.000029   0.000003
     9  C   -0.055721   0.004194   0.009705  -0.111108  -0.007973   0.012981
    10  C    0.314712  -0.031030  -0.136018   0.016163  -0.000162   0.004949
    11  H   -0.049173  -0.002014   0.004834  -0.000149  -0.000002  -0.000116
    12  C   -0.053241   0.007045   0.449604   0.482495  -0.039681  -0.048870
    13  N    7.019298   0.321247   0.270771   0.011755  -0.000095  -0.094220
    14  H    0.321247   0.401069  -0.026775  -0.000115   0.000004  -0.004313
    15  C    0.270771  -0.026775   4.759930  -0.061462   0.005255   0.480307
    16  C    0.011755  -0.000115  -0.061462   5.151403   0.345734  -0.059636
    17  H   -0.000095   0.000004   0.005255   0.345734   0.579096   0.000321
    18  C   -0.094220  -0.004313   0.480307  -0.059636   0.000321   5.056759
    19  H   -0.006124   0.002849  -0.040133   0.000468   0.000017   0.348101
    20  C   -0.000189  -0.000003  -0.043523   0.506992  -0.042062  -0.026838
    21  H    0.000003   0.000000   0.001013  -0.038279  -0.005034   0.004670
    22  C    0.005382  -0.000086   0.000169  -0.023044   0.004514   0.529469
    23  H   -0.000112  -0.000002   0.002774   0.004569  -0.000168  -0.040341
    24  O   -0.000001   0.000000  -0.000079  -0.000055  -0.000358   0.000004
    25  H   -0.000045  -0.000001  -0.000011  -0.000013  -0.000006   0.000001
    26  C   -0.000002   0.000000   0.000010  -0.001682  -0.000091   0.000013
    27  H    0.000000   0.000000  -0.000001   0.000014  -0.000002   0.000000
    28  H    0.000000   0.000000  -0.000001   0.000119  -0.000168   0.000000
    29  H    0.000002   0.000000  -0.000011   0.004082   0.000891  -0.000042
    30  C   -0.000004   0.000000  -0.000003   0.000000   0.000000   0.000000
    31  C    0.000000   0.000000   0.000000   0.000000   0.000000   0.000000
    32  C    0.000000   0.000000   0.000000   0.000000   0.000000   0.000000
    33  C   -0.000002   0.000000   0.000001   0.000000   0.000000   0.000000
    34  O    0.000000   0.000000   0.000000   0.000000   0.000000   0.000000
    35  H    0.000000   0.000000   0.000000   0.000000   0.000000   0.000000
    36  H    0.000000   0.000000   0.000000   0.000000   0.000000   0.000000
    37  H    0.000000   0.000000   0.000000   0.000000   0.000000   0.000000
    38  H    0.000000   0.000000   0.000000   0.000000   0.000000   0.000000
    39  H   -0.000004   0.000000  -0.000003   0.000000   0.000000   0.000000
              19         20         21         22         23         24
     1  N    0.000000   0.000000   0.000000   0.000000   0.000000  -0.008807
     2  C    0.000000  -0.000003   0.000000  -0.000001   0.000000  -0.072898
     3  H    0.000000   0.000000   0.000000   0.000000   0.000000   0.002232
     4  C    0.000000   0.000000  -0.000001  -0.000002   0.000000   0.302263
     5  O    0.000000   0.000024  -0.000004   0.000001   0.000000  -0.186677
     6  C    0.000002   0.000036   0.000000   0.000005   0.000000  -0.002598
     7  H    0.000000  -0.000009   0.000001   0.000001   0.000000   0.000221
     8  H    0.000000   0.000002   0.000000   0.000000   0.000000  -0.000087
     9  C   -0.000228   0.007895  -0.000181  -0.000122   0.000010   0.002659
    10  C   -0.000035  -0.000409   0.000005  -0.000043   0.000002   0.000046
    11  H    0.000001   0.000004   0.000000   0.000002   0.000000  -0.000001
    12  C    0.004436  -0.002052   0.002441  -0.037484   0.000993  -0.000278
    13  N   -0.006124  -0.000189   0.000003   0.005382  -0.000112  -0.000001
    14  H    0.002849  -0.000003   0.000000  -0.000086  -0.000002   0.000000
    15  C   -0.040133  -0.043523   0.001013   0.000169   0.002774  -0.000079
    16  C    0.000468   0.506992  -0.038279  -0.023044   0.004569  -0.000055
    17  H    0.000017  -0.042062  -0.005034   0.004514  -0.000168  -0.000358
    18  C    0.348101  -0.026838   0.004670   0.529469  -0.040341   0.000004
    19  H    0.610828   0.004396  -0.000173  -0.040638  -0.005486   0.000000
    20  C    0.004396   4.900832   0.358271   0.521232  -0.039860  -0.000002
    21  H   -0.000173   0.358271   0.598783  -0.041294  -0.005286   0.000000
[...]
 0061366,0.00056232,-0.00001817,-0.00000924,-0.00005541,0.00006568,0.00
 004613,-0.00028686,-0.00012669,-0.00013046,0.00004859,0.00010322,0.000
 06631,0.00006281,0.00000356,-0.00001919,0.00001451,0.00000829,0.000004
 76,0.00001563,-0.00000068,0.00001035,-0.00000389,0.00002072,-0.0000137
 0,-0.00002088,0.00000872,-0.00001264,0.00000527,0.00001495,-0.00000057
 ,-0.00000828,-0.00002820,0.00000063,0.00002036,0.00000058,0.00000027,-
 0.00000533,-0.00000764,0.00001930,0.00000942,-0.00000071,0.00000347,-0
 .00000109,0.00000498,0.00000051,0.00000200,0.00000693,-0.00000279,-0.0
 0000227,-0.00000124,0.00000325,0.00000103,-0.00000297,0.00000309,0.000
 00290,-0.00000270,-0.00000233,0.00000014,-0.00000665,-0.00000511,0.000
 00145,-0.00000378,0.00000028,0.00000123,-0.00004566,-0.00004959,0.0001
 1122,-0.00012932,0.00030013,-0.00015741,0.00003100,0.00003176,-0.00004
 251,-0.00000420,-0.00000050,0.00000936,-0.00000772,-0.00000718,0.00000
 006,-0.00000566,-0.00000695,0.00000294,-0.00587106,0.00900347,-0.00081
 923,-0.00755898,-0.00007566,-0.00992065,-0.08742670,-0.10713386,-0.094
 18636,0.00368207,-0.00561931,0.00093643,0.00053326,-0.00064651,0.00023
 593,0.09860476,0.10324346,-0.00000938,0.00033468,0.00067097,0.00006878
 ,0.00027340,-0.00000039,0.00002921,0.00004252,0.00001063,0.00005461,0.
 00009438,0.00002091,-0.00002124,-0.00002603,-0.00000644,-0.00002500,-0
 .00004201,-0.00004110,-0.00001734,0.00001070,-0.00000944,0.00002340,-0
 .00001640,0.00002519,0.00001374,-0.00000570,-0.00001865,0.00000716,-0.
 00003229,-0.00001721,0.00000220,-0.00001307,-0.00000399,0.00001321,0.0
 0001212,-0.00000061,-0.00003066,0.00002246,0.00001962,-0.00000604,-0.0
 0000947,0.00000185,-0.00000762,0.00001111,0.00000880,0.00000017,0.0000
 0333,-0.00000241,0.00000486,0.00000139,0.00000212,0.00000512,-0.000000
 84,-0.00000365,-0.00000136,0.00000273,0.00000255,-0.00000167,0.0000033
 4,0.00000110,-0.00000134,-0.00000184,0.00000080,-0.00000428,-0.0000032
 5,-0.00000042,-0.00000302,0.00000002,0.00000178,-0.00004410,-0.0000382
 1,0.00004057,-0.00003255,-0.00009582,0.00009120,0.00002537,0.00001801,
 -0.00002347,-0.00000029,0.00000005,0.00000341,-0.00000335,-0.00000471,
 0.00000120,-0.00000503,-0.00000329,0.00000168,0.00347159,-0.00220027,-
 0.00185965,0.00781796,0.00444430,0.00813772,-0.10754833,-0.09663585,-0
 .18252825,0.00000251,0.00233583,0.00053197,-0.00188052,-0.00040908,0.0
 0094348,0.11433436,0.10406003,0.18434421,0.00142028,0.00036079,-0.0008
 9335,0.00000546,-0.00025945,-0.00015561,-0.00006640,-0.00008381,-0.000
 00037,-0.00012746,-0.00017804,0.00020627,0.00007471,0.00009167,-0.0000
 5529,0.00001669,0.00005183,0.00007163,0.00003695,-0.00001681,0.0000156
 1,-0.00004259,0.00002953,-0.00005569,-0.00001844,0.00001850,0.00002874
 ,-0.00004514,0.00004001,0.00002697,-0.00001270,0.00001697,0.00001472,-
 0.00002758,-0.00001200,0.00000635,0.00005994,-0.00002000,-0.00005267,0
 .00000696,0.00000322,0.00001128,0.00001658,-0.00003213,-0.00001607,-0.
 00000177,-0.00000577,-0.00000069,-0.00000743,-0.00000297,0.00000007,-0
 .00001115,0.00000328,0.00000353,0.00000341,-0.00000598,-0.00000214,0.0
 0000591,-0.00000300,-0.00000616,0.00000468,0.00000336,-0.00000024,0.00
 001202,0.00000826,-0.00000301,0.00000611,-0.00000033,-0.00000185,0.000
 07875,0.00008137,-0.00019737,0.00027392,0.00015348,0.00010301,-0.00003
 451,-0.00003157,0.00006365,0.00000965,0.00000457,-0.00001754,0.0000103
 2,0.00001081,-0.00000395,0.00000780,0.00000791,-0.00000718,-0.00334165
 ,0.00316238,0.00354189,-0.00481887,0.00306413,0.02868218,-0.08309721,0
 .00126923,0.08616651,-0.00109591,-0.00709440,0.00045964,0.00156187,0.0
 0039935,-0.00231633,0.00826441,-0.00180717,-0.01631756,0.08166698,0.00
 077571,0.00052521,-0.00053097,-0.00021030,0.00023716,-0.00028633,-0.00
 004304,-0.00003731,0.00002639,-0.00007549,-0.00004463,0.00011485,0.000
 09376,0.00006299,-0.00001610,-0.00005532,0.00000440,-0.00001148,0.0000
 1311,-0.00000131,-0.00000631,-0.00002257,0.00002332,-0.00002203,-0.000
 02638,0.00000449,0.00003015,-0.00000592,0.00007363,0.00002369,0.000007
 69,0.00000401,0.00000890,-0.00000921,-0.00003552,-0.00000772,0.0000320
 9,-0.00006690,-0.00006456,0.00002261,0.00000333,0.00000696,0.00001054,
 0.00000795,0.00000150,0.00000727,0.00000813,0.00000849,-0.00000734,-0.
 00000223,-0.00000626,0.00000422,-0.00000396,-0.00000491,0.00000310,-0.
 00000242,-0.00000169,-0.00000742,-0.00000069,0.00000547,-0.00000213,-0
 .00000045,-0.00000090,-0.00000237,-0.00000451,-0.00000073,0.00000053,-
 0.00000072,-0.00000078,0.00006932,0.00003556,-0.00007341,0.00016879,0.
 00004505,0.00006539,-0.00003657,-0.00001434,0.00003340,-0.00000020,0.0
 0000444,-0.00000661,0.00000473,0.00000217,-0.00000375,0.00000904,0.000
 00718,-0.00000181,0.00179278,-0.00564126,0.00329315,-0.00384613,0.0064
 4240,0.01205708,0.00291373,-0.04596764,-0.03432110,-0.00671093,0.00857
 634,-0.00297132,0.00021601,-0.00064914,-0.00104952,0.00457240,0.001639
 00,-0.01212496,0.00022756,0.03538437,0.00066405,0.00015878,-0.00019754
 ,0.00000063,-0.00011172,-0.00006316,-0.00002187,-0.00001595,0.00002504
 ,-0.00002952,-0.00003719,0.00000944,0.00001659,0.00002603,0.00000040,0
 .00001412,0.00000208,0.00003108,0.00000562,-0.00000508,0.00000551,-0.0
 0000112,0.00000643,-0.00000318,-0.00000474,0.00000113,0.00000728,0.000
 01119,0.00001261,0.00000578,0.00000552,0.00000205,-0.00000099,-0.00000
 729,-0.00000152,0.00000171,0.00000785,-0.00000517,0.00000038,-0.000001
 07,0.00000357,-0.00000453,-0.00000288,-0.00000622,-0.00000248,-0.00000
 091,-0.00000256,0.00000010,-0.00000147,-0.00000055,-0.00000022,-0.0000
 0184,0.00000034,0.00000130,-0.00000003,-0.00000068,-0.00000067,0.00000
 068,-0.00000121,-0.00000067,0.00000085,0.00000084,-0.00000014,0.000000
 90,0.00000121,0.00000060,0.00000137,-0.00000013,-0.00000082,0.00001791
 ,0.00002802,-0.00001349,0.00005163,0.00001765,-0.00007693,-0.00000989,
 -0.00001189,0.00001152,0.00000104,-0.00000174,-0.00000096,0.00000296,0
 .00000430,0.00000067,0.00000139,0.00000167,-0.00000120,-0.00147530,0.0
 0089403,-0.00179686,0.00422014,-0.00059164,-0.00464382,0.09167009,-0.0
 3124399,-0.31458541,0.00167356,-0.00240016,0.00150181,-0.00245441,-0.0
 0123773,-0.00038291,0.00624706,-0.00066149,-0.01073001,-0.10080517,0.0
 3472879,0.33069381,-0.00001869,-0.00015700,-0.00013130,0.00045559,0.00
 005635,0.00001814,-0.00008171,-0.00006210,-0.00009305,0.00007035,0.000
 13148,0.00006643,-0.00007926,-0.00009751,-0.00003405,-0.00001489,-0.00
 002050,0.00001400,-0.00001409,0.00000270,-0.00001129,0.00000063,0.0000
 0499,0.00000724,0.00000913,0.00006724,-0.00001981,-0.00003886,-0.00005
 442,-0.00007422,0.00000126,-0.00004323,0.00004061,0.00003265,-0.000002
 42,-0.00001369,-0.00002526,0.00001170,-0.00001573,-0.00000450,-0.00002
 649,-0.00000133,-0.00001908,0.00002294,0.00003040,0.00000825,0.0000194
 7,-0.00000376,0.00000800,0.00000012,0.00000500,0.00002883,-0.00000719,
 -0.00001589,-0.00000398,0.00000817,0.00000433,-0.00001329,0.00001240,0
 .00000889,-0.00000419,-0.00000395,0.00000139,-0.00001856,-0.00001888,-
 0.00000026,-0.00000776,-0.00000068,0.00000271,-0.00006776,-0.00008900,
 -0.00000893,0.00040945,0.00064817,-0.00000529,0.00006706,0.00005835,-0
 .00006895,0.00000242,0.00000587,0.00000156,-0.00000932,-0.00001425,0.0
 0000133,-0.00001100,-0.00000712,0.00000357,-0.00212103,-0.00095235,0.0
 0261907,0.00879083,0.00699121,0.00806586,0.00059661,0.00091611,0.00128
 350,-0.16223162,-0.08708562,-0.10311080,0.00084135,0.00061996,0.000556
 50,0.00007458,-0.00010525,0.00001891,0.00011348,0.00010904,-0.00018122
 ,0.17386920,-0.00031726,0.00036458,-0.00013042,0.00010013,0.00023994,0
 .00011958,0.00000741,0.00002987,0.00000199,0.00008613,0.00008126,0.000
 07670,-0.00008054,-0.00009184,-0.00004246,-0.00001548,-0.00007243,-0.0
 0005443,-0.00002384,0.00002517,-0.00001361,0.00000387,0.00000161,0.000
 00785,0.00001270,-0.00002713,-0.00002236,0.00003919,-0.00003019,0.0000
 0208,0.00000305,0.00001115,-0.00001890,0.00000412,0.00001229,0.0000013
 3,-0.00004353,0.00002906,0.00005095,-0.00000322,0.00000438,-0.00000662
 ,0.00000332,0.00001097,-0.00000250,-0.00000484,-0.00000311,-0.00000639
 ,0.00000762,0.00000191,0.00000544,-0.00000447,0.00000034,0.00000371,-0
 .00000106,0.00000279,0.00000071,0.00000409,0.00000158,-0.00000278,-0.0
 0000033,-0.00000158,0.00000042,0.00000135,0.00000188,0.00000090,-0.000
 00303,0.00000086,0.00000125,-0.00011090,-0.00003954,-0.00002730,0.0005
 7996,-0.00079754,0.00012638,0.00006483,0.00005197,-0.00005992,0.000007
 95,0.00000168,0.00000046,-0.00000674,-0.00000793,0.00000179,-0.0000160
 2,-0.00001177,0.00000207,-0.00023182,0.00113991,0.00045115,-0.00098468
 ,-0.00141472,-0.00137362,-0.00000662,-0.00011552,0.00123251,-0.0863777
 0,-0.11487123,-0.07799142,0.00020143,-0.00005711,-0.00042929,0.0001845
 8,0.00046772,-0.00001211,0.00014270,-0.00013162,0.00007573,0.09545911,
 0.11949805,-0.00029042,-0.00016941,0.00068117,0.00000312,0.00009913,0.
 00038481,0.00009529,0.00007215,-0.00003038,0.00009620,0.00010927,-0.00
 029309,-0.00007702,-0.00007370,0.00007610,0.00000322,-0.00003331,-0.00
 002426,-0.00002601,0.00000957,-0.00001199,0.00002941,-0.00003021,0.000
 03611,0.00002516,-0.00001015,-0.00002735,0.00002121,-0.00004895,-0.000
 02881,0.00000380,-0.00002218,-0.00000643,0.00001944,0.00002340,-0.0000
 0026,-0.00004289,0.00003894,0.00004921,-0.00001788,-0.00000645,-0.0000
 0895,-0.00002110,0.00001259,0.00001119,-0.00000100,-0.00000003,-0.0000
 0124,0.00000598,0.00000268,0.00000036,0.00000706,-0.00000023,-0.000001
 17,-0.00000326,0.00000364,0.00000208,-0.00000168,0.00000162,0.00000297
 ,-0.00000199,-0.00000129,0.00000028,-0.00000734,-0.00000372,0.00000209
 ,-0.00000306,0.00000032,0.00000104,-0.00004844,-0.00005801,0.00019251,
 -0.00036088,-0.00000202,-0.00060728,0.00001270,0.00001082,-0.00003413,
 -0.00001002,-0.00000558,0.00001562,-0.00000595,-0.00000426,0.00000203,
 -0.00000323,-0.00000512,0.00000514,0.00503487,0.00172800,-0.00200582,-
 0.02052736,-0.01605724,-0.02002245,-0.00187400,-0.00037046,0.00162232,
 -0.10074773,-0.07679283,-0.13886811,-0.00092350,-0.00119253,-0.0025518
 2,0.00123704,0.00057660,0.00016123,-0.00010762,0.00009836,0.00037867,0
 .10852321,0.08512675,0.15203146,0.00020350,0.00000398,-0.00019776,-0.0
 0019341,-0.00006686,-0.00010218,0.00002802,0.00000197,0.00006161,-0.00
 000530,-0.00011399,-0.00025800,0.00008889,0.00013219,0.00011911,0.0000
 0154,0.00003818,0.00002722,0.00002666,-0.00001308,0.00000280,-0.000007
 68,0.00000191,-0.00001531,-0.00002899,0.00001528,0.00003487,-0.0000312
 1,0.00007119,0.00000588,-0.00000710,-0.00001177,0.00004784,-0.00000630
 ,-0.00003400,-0.00000405,0.00004042,-0.00006063,-0.00007627,0.00003101
 ,-0.00000084,0.00001720,0.00000500,0.00001219,0.00000022,0.00000685,0.
 00000080,0.00001067,-0.00000988,-0.00000199,-0.00000908,0.00000462,-0.
 00000253,-0.00000016,0.00000163,-0.00000173,-0.00000260,-0.00000955,-0
 .00000459,0.00000738,-0.00000114,0.00000140,-0.00000172,-0.00000590,-0
 .00000537,0.00000246,0.00000155,-0.00000087,-0.00000212,0.00013521,0.0
 0013458,0.00020665,-0.00063429,0.00008537,-0.00141879,-0.00009332,-0.0
 0008667,0.00004602,-0.00001280,-0.00002281,0.00001107,0.00001663,0.000
 02165,0.00000940,0.00001571,0.00001657,-0.00000140,-0.00015480,-0.0001
 3423,-0.00059129,-0.00416055,-0.01220761,0.00708115,0.00028610,0.00049
 962,0.00214943,-0.05318344,-0.03624939,0.01360631,-0.00005245,0.000178
 73,0.00026070,0.00055901,-0.00074936,0.00025464,-0.00103912,0.00112949
 ,-0.00007456,-0.00295546,-0.01967632,0.00971027,0.05574759,-0.00023962
 ,0.00031361,-0.00060408,0.00022165,0.00015758,-0.00016609,-0.00004984,
 -0.00001792,-0.00004198,-0.00001024,0.00002451,0.00028616,-0.00003215,
 -0.00003636,-0.00010937,0.00001364,-0.00006186,-0.00001736,-0.00000921
 ,0.00001912,-0.00000016,-0.00000965,0.00001342,-0.00001674,0.00002311,
 -0.00000556,-0.00001673,0.00000496,-0.00005797,0.00000459,-0.00000119,
 0.00001688,-0.00004318,-0.00000947,0.00003679,0.00001335,-0.00000729,0
 .00006486,0.00005529,-0.00003546,-0.00000160,-0.00001269,-0.00000601,-
 0.00003708,-0.00001008,-0.00000997,-0.00000641,-0.00001182,0.00000528,
 0.00000099,0.00000906,-0.00001053,0.00000519,0.00000156,-0.00000057,-0
 .00000191,0.00000236,0.00001468,0.00000293,-0.00001295,0.00000491,0.00
 000116,0.00000231,0.00001319,0.00001161,-0.00000473,0.00000332,0.00000
 031,0.00000136,0.00001020,-0.00002256,-0.00018832,0.00053566,-0.000266
 08,0.00019657,0.00003278,0.00002061,0.00004071,0.00001359,0.00001571,-
 0.00002235,-0.00000361,-0.00000584,-0.00000779,-0.00000403,-0.00000493
 ,-0.00000655,-0.00177978,-0.00062981,0.00004137,-0.00090350,0.00684274
 ,-0.00015171,0.00092316,0.00026636,-0.00005919,-0.03529697,-0.25899616
 ,0.09142877,0.00055885,0.00020627,0.00010235,0.00018824,0.00005846,0.0
 0003022,0.00021104,-0.00021986,0.00007566,-0.00124857,-0.01365493,0.00
 584127,0.03954438,0.28108174,-0.00064302,-0.00113437,0.00074839,-0.000
 47257,-0.00034899,-0.00011676,0.00004919,0.00004879,0.00005097,-0.0001
 0900,-0.00008627,-0.00025321,0.00009644,0.00010194,0.00009134,0.000055
 48,0.00009307,0.00004181,0.00003234,-0.00002869,0.00002463,0.00000304,
 -0.00000982,0.00000206,-0.00002325,-0.00000449,0.00004573,-0.00000102,
 0.00006835,0.00001778,0.00001188,-0.00000225,0.00000197,-0.00001152,-0
 .00001960,0.00000087,0.00004157,-0.00005020,-0.00004254,0.00000711,0.0
 0000831,-0.00000223,-0.00000763,-0.00000806,-0.00000283,0.00000453,0.0
 0000039,0.00001205,-0.00001144,-0.00000154,-0.00001056,0.00000062,-0.0
 0000117,-0.00000037,0.00000157,-0.00000388,-0.00000266,-0.00000411,-0.
 00000554,0.00000416,-0.00000031,0.00000233,-0.00000145,0.00000020,-0.0
 0000018,0.00000064,0.00000388,-0.00000076,-0.00000245,0.00019129,0.000
 07257,0.00011180,-0.00155898,0.00058676,-0.00117729,-0.00010180,-0.000
 07404,0.00011973,-0.00000593,0.00000047,-0.00000227,0.00000877,0.00001
 273,-0.00000854,0.00002611,0.00001636,-0.00000924,0.00255938,0.0017659
 1,0.00020996,0.00678250,0.02832128,-0.01306832,-0.00051466,-0.00129230
 ,-0.00373439,0.01409725,0.09331931,-0.08965257,-0.00066633,-0.00066662
 ,0.00033518,-0.00030553,0.00082956,-0.00011007,0.00177323,-0.00136867,
 0.00048179,-0.00168184,-0.01794303,0.00869205,-0.01875836,-0.10225539,
 0.09737031,0.00058468,-0.00039722,-0.00045723,0.00034796,-0.00007636,-
 0.00016407,-0.00006529,-0.00007856,-0.00007906,-0.00001965,0.00002474,
 0.00006493,0.00002832,0.00000232,-0.00001195,-0.00000681,0.00005216,0.
 00004879,0.00001272,-0.00001672,0.00000571,-0.00001515,0.00001218,-0.0
 0001057,-0.00005998,-0.00003633,0.00002361,0.00005418,0.00010810,0.000
 05495,-0.00000820,-0.00002442,0.00005416,0.00001998,-0.00004041,-0.000
 02706,-0.00003934,-0.00007059,-0.00006651,0.00005135,-0.00000357,0.000
 03365,0.00003221,0.00004763,-0.00000035,-0.00000271,0.00000519,0.00000
 624,-0.00000328,-0.00000317,-0.00000314,-0.00000209,-0.00000616,-0.000
 00480,0.00000563,-0.00000275,0.00000083,-0.00000384,-0.00000344,-0.000
 00006,-0.00000352,-0.00000320,0.00000022,-0.00000264,0.00000137,0.0000
 0095,-0.00000189,-0.00000055,0.00000101,0.00001807,-0.00001932,-0.0000
 3786,0.00022596,0.00021269,-0.00058707,-0.00001013,0.00000635,0.000013
 62,-0.00000212,0.00000577,-0.00000389,0.00000120,-0.00000298,-0.000004
 26,0.00000474,0.00000464,-0.00000017,-0.00211419,-0.00128754,-0.000266
 54,-0.01068302,0.00330528,0.00370794,0.00078984,0.00126935,0.00198820,
 -0.24002306,0.11017740,-0.00091178,0.00066612,0.00030093,0.00017544,-0
 .00016160,0.00080697,-0.00018714,0.00013103,-0.00112221,0.00045814,-0.
 01763937,0.01099485,0.00027440,0.00539272,-0.00265496,-0.00086906,0.26
 250117,-0.00046203,0.00024921,0.00005266,-0.00051204,-0.00005068,-0.00
 000400,0.00009873,0.00007367,0.00012740,-0.00004338,-0.00017032,-0.000
 19642,0.00010655,0.00014061,0.00009637,-0.00001119,0.00003457,-0.00003
 303,0.00001874,-0.00000563,0.00001379,-0.00000092,-0.00000455,-0.00000
 098,-0.00001418,-0.00006639,0.00003171,0.00005249,0.00009811,0.0000553
 7,-0.00000391,0.00002881,0.00001048,-0.00004843,-0.00003124,0.00001740
 ,0.00003845,-0.00005115,-0.00001853,0.00003418,0.00002589,0.00000009,0
 .00000222,-0.00000821,-0.00002729,0.00000246,-0.00001544,0.00001088,-0
 .00001016,0.00000002,-0.00000890,-0.00001561,0.00000215,0.00001777,0.0
 0000113,-0.00000298,-0.00000714,-0.00000171,-0.00001016,0.00000290,0.0
 0000237,0.00000460,-0.00000304,0.00000628,0.00000257,0.00000389,0.0000
 0468,0.00000027,-0.00000451,0.00001416,0.00015428,0.00009311,-0.000473
 96,-0.00189517,-0.00108272,-0.00008075,-0.00007796,0.00005596,0.000002
 96,-0.00002727,0.00000700,0.00001867,0.00002921,0.00000895,0.00000747,
 0.00001000,-0.00000752,0.00189150,0.00075774,-0.00031829,-0.00057751,0
 .00047790,-0.00027325,-0.00051573,-0.00012702,0.00003961,0.11008527,-0
 .11138345,-0.00185005,-0.00062728,-0.00020978,0.00025777,-0.00009991,0
 .00032581,-0.00002545,0.00019148,-0.00026662,0.00029571,-0.01514884,0.
 00934922,0.00113258,0.02755516,-0.01513403,0.00005771,-0.12148742,0.11
 777340,-0.00109849,-0.00013763,0.00004722,-0.00019886,-0.00014112,-0.0
 0005531,0.00001516,0.00005077,0.00004870,-0.00006853,-0.00006250,0.000
 10211,0.00003490,0.00004817,-0.00003159,-0.00001029,0.00004968,-0.0000
 2555,0.00000823,0.00000928,0.00002822,0.00000686,-0.00000579,-0.000006
 01,0.00000471,-0.00024247,-0.00004389,0.00014442,0.00007763,0.00026598
 ,-0.00002030,0.00009997,-0.00019687,-0.00001994,0.00005602,0.00001199,
 -0.00008617,0.00005456,0.00005912,-0.00001387,0.00001251,0.00001516,0.
 00010340,-0.00000991,-0.00005566,-0.00002981,-0.00004025,-0.00001145,-
 0.00000279,0.00000155,0.00000207,-0.00007060,0.00001362,0.00002448,0.0
 0000750,-0.00001418,-0.00000305,0.00004199,-0.00002791,-0.00003186,0.0
 0001007,0.00000516,-0.00000019,0.00005026,0.00005541,-0.00000181,0.000
 01074,0.00000155,-0.00000164,0.00002989,0.00002798,-0.00010887,-0.0004
 5470,-0.00137426,-0.00005530,-0.00001950,-0.00002287,0.00006726,-0.000
 00049,0.00001188,-0.00001455,0.00000430,0.00000559,-0.00000991,0.00000
 667,0.00000176,-0.00000089,0.00176747,0.00072644,0.00050105,0.03007495
 ,-0.01525340,-0.00002042,-0.00021208,-0.00114895,-0.00372789,0.0014727
 7,-0.00252922,-0.04833052,-0.00069527,0.00012135,0.00005527,0.00054752
 ,-0.00074550,0.00033276,-0.00015942,0.00237934,-0.00065090,-0.01580123
 ,0.01084744,0.00017510,-0.01215926,0.00562631,-0.00016547,-0.00322020,
 0.00147204,0.05181314||-0.00000030,-0.00000046,-0.00000065,0.00000032,
 0.00000144,-0.00000017,0.00000004,0.00000122,-0.00000139,-0.00000011,-
 0.00000013,-0.00000421,0.00000039,0.00000153,-0.00000166,-0.00000072,0
 .00000124,-0.00000083,-0.00000019,0.00000214,-0.00000045,-0.00000020,0
 .00000190,0.00000022,0.00000129,0.00000202,0.00000061,-0.00000016,-0.0
 0000005,0.00000147,-0.00000006,0.00000088,0.00000212,-0.00000064,0.000
 00034,0.00000034,-0.00000006,0.00000016,0.00000229,0.00000012,-0.00000
 006,0.00000262,0.00000008,0.00000016,0.00000122,0.00000027,0.00000072,
 -0.00000039,-0.00000011,0.00000109,-0.00000105,0.00000009,-0.00000020,
 0.00000157,0.00000004,-0.00000071,0.00000223,-0.00000010,0.00000036,-0
 .00000019,-0.00000003,0.00000033,-0.00000084,0.00000003,-0.00000054,0.
 00000063,0.00000002,-0.00000053,0.00000078,-0.00000030,-0.00000069,-0.
 00000020,0.00000010,-0.00000062,-0.00000030,-0.00000013,-0.00000165,-0
 .00000281,-0.00000007,-0.00000231,-0.00000185,0.00000009,-0.00000068,-
 0.00000247,0.00000002,-0.00000074,-0.00000179,-0.00000005,0.00000053,-
 0.00000027,0.00000007,-0.00000050,0.00000049,-0.00000010,-0.00000002,0
 .00000074,0.00000011,-0.00000168,0.00000060,-0.00000006,0.00000113,-0.
 00000004,0.00000008,-0.00000080,0.00000121,0.00000001,0.00000056,0.000
 00072,0.00000011,-0.00000206,0.00000095,0.,-0.00000184,-0.00000026,0.0
 0000010,-0.00000145,0.00000101|||@


 Make no judgements where you have no compassion.
                               -- Anne McCaffrey
 Job cpu time:       0 days  0 hours 23 minutes 55.0 seconds.
 File lengths (MBytes):  RWF=    530 Int=      0 D2E=      0 Chk=     12 Scr=      1
 Normal termination of Gaussian 09 at Sun Jan 28 15:47:37 2024.
