 Entering Gaussian System, Link 0=/truba/home/eraksoy/apps/g09/g09
 Initial command:
 /truba/home/eraksoy/apps/g09/l1.exe "/tmp/eraksoy/g09.1307851/Gau-70043.inp" -scrdir="/tmp/eraksoy/g09.1307851/"
 Entering Link 1 = /truba/home/eraksoy/apps/g09/l1.exe PID=     70044.
  
 Copyright (c) 1988,1990,1992,1993,1995,1998,2003,2009,2013,
            Gaussian, Inc.  All Rights Reserved.
  
 This is part of the Gaussian(R) 09 program.  It is based on
 the Gaussian(R) 03 system (copyright 2003, Gaussian, Inc.),
 the Gaussian(R) 98 system (copyright 1998, Gaussian, Inc.),
 the Gaussian(R) 94 system (copyright 1995, Gaussian, Inc.),
 the Gaussian 92(TM) system (copyright 1992, Gaussian, Inc.),
 the Gaussian 90(TM) system (copyright 1990, Gaussian, Inc.),
 the Gaussian 88(TM) system (copyright 1988, Gaussian, Inc.),
 the Gaussian 86(TM) system (copyright 1986, Carnegie Mellon
 University), and the Gaussian 82(TM) system (copyright 1983,
 Carnegie Mellon University). Gaussian is a federally registered
 trademark of Gaussian, Inc.
  
 This software contains proprietary and confidential information,
 including trade secrets, belonging to Gaussian, Inc.
  
 This software is provided under written license and may be
 used, copied, transmitted, or stored only in accord with that
 written license.
  
 The following legend is applicable only to US Government
 contracts under FAR:
  
                    RESTRICTED RIGHTS LEGEND
  
 Use, reproduction and disclosure by the US Government is
 subject to restrictions as set forth in subparagraphs (a)
 and (c) of the Commercial Computer Software - Restricted
 Rights clause in FAR 52.227-19.
  
 Gaussian, Inc.
 340 Quinnipiac St., Bldg. 40, Wallingford CT 06492
  
  
 ---------------------------------------------------------------
 Warning -- This program may not be used in any manner that
 competes with the business of Gaussian, Inc. or will provide
 assistance to any competitor of Gaussian, Inc.  The licensee
 of this program is prohibited from giving any competitor of
 Gaussian, Inc. access to this program.  By using this program,
 the user acknowledges that Gaussian, Inc. is engaged in the
 business of creating and licensing software in the field of
 computational chemistry and represents and warrants to the
 licensee that it is not a competitor of Gaussian, Inc. and that
 it will not use this program in any manner prohibited above.
 ---------------------------------------------------------------
  

 Cite this work as:
 Gaussian 09, Revision D.01,
 M. J. Frisch, G. W. Trucks, H. B. Schlegel, G. E. Scuseria, 
 M. A. Robb, J. R. Cheeseman, G. Scalmani, V. Barone, B. Mennucci, 
 G. A. Petersson, H. Nakatsuji, M. Caricato, X. Li, H. P. Hratchian, 
 A. F. Izmaylov, J. Bloino, G. Zheng, J. L. Sonnenberg, M. Hada, 
 M. Ehara, K. Toyota, R. Fukuda, J. Hasegawa, M. Ishida, T. Nakajima, 
 Y. Honda, O. Kitao, H. Nakai, T. Vreven, J. A. Montgomery, Jr., 
 J. E. Peralta, F. Ogliaro, M. Bearpark, J. J. Heyd, E. Brothers, 
 K. N. Kudin, V. N. Staroverov, T. Keith, R. Kobayashi, J. Normand, 
 K. Raghavachari, A. Rendell, J. C. Burant, S. S. Iyengar, J. Tomasi, 
 M. Cossi, N. Rega, J. M. Millam, M. Klene, J. E. Knox, J. B. Cross, 
 V. Bakken, C. Adamo, J. Jaramillo, R. Gomperts, R. E. Stratmann, 
 O. Yazyev, A. J. Austin, R. Cammi, C. Pomelli, J. W. Ochterski, 
 R. L. Martin, K. Morokuma, V. G. Zakrzewski, G. A. Voth, 
 P. Salvador, J. J. Dannenberg, S. Dapprich, A. D. Daniels, 
 O. Farkas, J. B. Foresman, J. V. Ortiz, J. Cioslowski, 
 and D. J. Fox, Gaussian, Inc., Wallingford CT, 2013.
 
 ******************************************
 Gaussian 09:  ES64L-G09RevD.01 24-Apr-2013
                18-Dec-2023 
 ******************************************
 %nprocshared=28
 Will use up to   28 processors via shared memory.
 %mem=6GB
 %chk=MATrp_OptFreq.chk
 -------------------------------------------------------------
 #p opt=tight freq b3lyp/6-31g(d) guess=save geom=connectivity
 -------------------------------------------------------------
 1/7=10,14=-1,18=20,19=15,26=3,38=1,57=2/1,3;
 2/9=110,12=2,17=6,18=5,40=1/2;
 3/5=1,6=6,7=1,11=2,16=1,25=1,30=1,71=1,74=-5/1,2,3;
 4//1;
 5/5=2,38=5/2;
 6/7=2,8=2,9=2,10=2,28=1/1;
 7//1,2,3,16;
 1/7=10,14=-1,18=20,19=15,26=3/3(2);
 2/9=110/2;
 99//99;
 2/9=110/2;
 3/5=1,6=6,7=1,11=2,16=1,25=1,30=1,71=1,74=-5/1,2,3;
 4/5=5,16=3,69=1/1;
 5/5=2,38=5/2;
 7//1,2,3,16;
 1/7=10,14=-1,18=20,19=15,26=3/3(-5);
 2/9=110/2;
 6/7=2,8=2,9=2,10=2,19=2,28=1/1;
 99/9=1/99;
 Leave Link    1 at Mon Dec 18 20:36:13 2023, MaxMem=   805306368 cpu:         1.3
 (Enter /truba/home/eraksoy/apps/g09/l101.exe)
 --------------------------------
 MATrp OptFreq tight B3LYP/6-31Gd
 --------------------------------
 Symbolic Z-matrix:
 Charge =  0 Multiplicity = 1
 N                    -3.0817    2.3919    1.1142 
 C                    -2.9444    3.8537    1.3111 
 H                    -3.6837    4.358     0.6308 
 C                    -1.5904    4.4487    0.9162 
 O                    -1.1572    5.5398    1.2251 
 C                    -3.3383    4.2373    2.742 
 H                    -3.3524    5.348     2.7898 
 H                    -4.3916    3.9167    2.8955 
 C                    -2.5701    3.7676    3.923 
 C                    -2.9641    4.1917    5.183 
 H                    -3.7895    4.8584    5.4377 
 C                    -1.4184    2.9107    4.1022 
 N                    -2.1591    3.5826    6.1655 
 H                    -2.0529    3.9385    7.0806 
 C                    -1.156     2.8456    5.5018 
 C                    -0.572     2.1929    3.245 
 H                    -0.7287    2.2034    2.1599 
 C                    -0.0937    2.1061    6.0408 
 H                     0.084     2.0797    7.1203 
 C                     0.4742    1.4659    3.7743 
 H                     1.1389    0.9091    3.1056 
 C                     0.7158    1.4217    5.1596 
 H                     1.5603    0.8349    5.5353 
 O                    -0.843     3.6674    0.0756 
 H                    -2.3262    1.8719    1.5202 
 C                     0.4075    4.1508   -0.3671 
 H                     0.7444    3.35     -1.0303 
 H                     0.3113    5.091    -0.9205 
 H                     1.1065    4.2801    0.4661 
 C                    -3.6061    1.849    -0.0961 
 C                    -3.3902    0.393    -0.3566 
 C                    -3.5462   -0.088    -1.5931 
 C                    -3.0207   -0.4969    0.7773 
 O                    -4.2606    2.5756   -0.8317 
 H                    -3.4077   -1.1393   -1.8325 
 H                    -3.8281    0.534    -2.4394 
 H                    -3.0164   -1.5546    0.4803 
 H                    -2.0148   -0.265     1.1585 
 H                    -3.7273   -0.3947    1.6121 
 
 NAtoms=     39 NQM=       39 NQMF=       0 NMMI=      0 NMMIF=      0
                NMic=       0 NMicF=      0.
                    Isotopes and Nuclear Properties:
 (Nuclear quadrupole moments (NQMom) in fm**2, nuclear magnetic moments (NMagM)
  in nuclear magnetons)

  Atom         1           2           3           4           5           6           7           8           9          10
 IAtWgt=          14          12           1          12          16          12           1           1          12          12
 AtmWgt=  14.0030740  12.0000000   1.0078250  12.0000000  15.9949146  12.0000000   1.0078250   1.0078250  12.0000000  12.0000000
 NucSpn=           2           0           1           0           0           0           1           1           0           0
 AtZEff=   0.0000000   0.0000000   0.0000000   0.0000000   0.0000000   0.0000000   0.0000000   0.0000000   0.0000000   0.0000000
 NQMom=    2.0440000   0.0000000   0.0000000   0.0000000   0.0000000   0.0000000   0.0000000   0.0000000   0.0000000   0.0000000
 NMagM=    0.4037610   0.0000000   2.7928460   0.0000000   0.0000000   0.0000000   2.7928460   2.7928460   0.0000000   0.0000000
 AtZNuc=   7.0000000   6.0000000   1.0000000   6.0000000   8.0000000   6.0000000   1.0000000   1.0000000   6.0000000   6.0000000

  Atom        11          12          13          14          15          16          17          18          19          20
 IAtWgt=           1          12          14           1          12          12           1          12           1          12
 AtmWgt=   1.0078250  12.0000000  14.0030740   1.0078250  12.0000000  12.0000000   1.0078250  12.0000000   1.0078250  12.0000000
 NucSpn=           1           0           2           1           0           0           1           0           1           0
 AtZEff=   0.0000000   0.0000000   0.0000000   0.0000000   0.0000000   0.0000000   0.0000000   0.0000000   0.0000000   0.0000000
 NQMom=    0.0000000   0.0000000   2.0440000   0.0000000   0.0000000   0.0000000   0.0000000   0.0000000   0.0000000   0.0000000
 NMagM=    2.7928460   0.0000000   0.4037610   2.7928460   0.0000000   0.0000000   2.7928460   0.0000000   2.7928460   0.0000000
 AtZNuc=   1.0000000   6.0000000   7.0000000   1.0000000   6.0000000   6.0000000   1.0000000   6.0000000   1.0000000   6.0000000

  Atom        21          22          23          24          25          26          27          28          29          30
 IAtWgt=           1          12           1          16           1          12           1           1           1          12
 AtmWgt=   1.0078250  12.0000000   1.0078250  15.9949146   1.0078250  12.0000000   1.0078250   1.0078250   1.0078250  12.0000000
 NucSpn=           1           0           1           0           1           0           1           1           1           0
 AtZEff=   0.0000000   0.0000000   0.0000000   0.0000000   0.0000000   0.0000000   0.0000000   0.0000000   0.0000000   0.0000000
 NQMom=    0.0000000   0.0000000   0.0000000   0.0000000   0.0000000   0.0000000   0.0000000   0.0000000   0.0000000   0.0000000
 NMagM=    2.7928460   0.0000000   2.7928460   0.0000000   2.7928460   0.0000000   2.7928460   2.7928460   2.7928460   0.0000000
 AtZNuc=   1.0000000   6.0000000   1.0000000   8.0000000   1.0000000   6.0000000   1.0000000   1.0000000   1.0000000   6.0000000

  Atom        31          32          33          34          35          36          37          38          39
 IAtWgt=          12          12          12          16           1           1           1           1           1
 AtmWgt=  12.0000000  12.0000000  12.0000000  15.9949146   1.0078250   1.0078250   1.0078250   1.0078250   1.0078250
 NucSpn=           0           0           0           0           1           1           1           1           1
 AtZEff=   0.0000000   0.0000000   0.0000000   0.0000000   0.0000000   0.0000000   0.0000000   0.0000000   0.0000000
 NQMom=    0.0000000   0.0000000   0.0000000   0.0000000   0.0000000   0.0000000   0.0000000   0.0000000   0.0000000
 NMagM=    0.0000000   0.0000000   0.0000000   0.0000000   2.7928460   2.7928460   2.7928460   2.7928460   2.7928460
 AtZNuc=   6.0000000   6.0000000   6.0000000   8.0000000   1.0000000   1.0000000   1.0000000   1.0000000   1.0000000
 Leave Link  101 at Mon Dec 18 20:36:13 2023, MaxMem=   805306368 cpu:         6.4
 (Enter /truba/home/eraksoy/apps/g09/l103.exe)

 GradGradGradGradGradGradGradGradGradGradGradGradGradGradGradGradGradGrad
 Berny optimization.
 Initialization pass.
                           ----------------------------
                           !    Initial Parameters    !
                           ! (Angstroms and Degrees)  !
 --------------------------                            --------------------------
 ! Name  Definition              Value          Derivative Info.                !
 --------------------------------------------------------------------------------
 ! R1    R(1,2)                  1.4814         estimate D2E/DX2                !
 ! R2    R(1,25)                 1.003          estimate D2E/DX2                !
 ! R3    R(1,30)                 1.4264         estimate D2E/DX2                !
 ! R4    R(2,3)                  1.1241         estimate D2E/DX2                !
 ! R5    R(2,4)                  1.5308         estimate D2E/DX2                !
 ! R6    R(2,6)                  1.5329         estimate D2E/DX2                !
 ! R7    R(4,5)                  1.2139         estimate D2E/DX2                !
 ! R8    R(4,24)                 1.3695         estimate D2E/DX2                !
 ! R9    R(6,7)                  1.1118         estimate D2E/DX2                !
 ! R10   R(6,8)                  1.1117         estimate D2E/DX2                !
 ! R11   R(6,9)                  1.4851         estimate D2E/DX2                !
 ! R12   R(9,10)                 1.3866         estimate D2E/DX2                !
 ! R13   R(9,12)                 1.4467         estimate D2E/DX2                !
 ! R14   R(10,11)                1.0912         estimate D2E/DX2                !
 ! R15   R(10,13)                1.4087         estimate D2E/DX2                !
 ! R16   R(12,15)                1.4255         estimate D2E/DX2                !
 ! R17   R(12,16)                1.4023         estimate D2E/DX2                !
 ! R18   R(13,14)                0.9876         estimate D2E/DX2                !
 ! R19   R(13,15)                1.4106         estimate D2E/DX2                !
 ! R20   R(15,18)                1.4021         estimate D2E/DX2                !
 ! R21   R(16,17)                1.0964         estimate D2E/DX2                !
 ! R22   R(16,20)                1.3796         estimate D2E/DX2                !
 ! R23   R(18,19)                1.0943         estimate D2E/DX2                !
 ! R24   R(18,22)                1.3785         estimate D2E/DX2                !
 ! R25   R(20,21)                1.095          estimate D2E/DX2                !
 ! R26   R(20,22)                1.4069         estimate D2E/DX2                !
 ! R27   R(22,23)                1.0948         estimate D2E/DX2                !
 ! R28   R(24,26)                1.4119         estimate D2E/DX2                !
 ! R29   R(26,27)                1.093          estimate D2E/DX2                !
 ! R30   R(26,28)                1.0952         estimate D2E/DX2                !
 ! R31   R(26,29)                1.0952         estimate D2E/DX2                !
 ! R32   R(30,31)                1.4948         estimate D2E/DX2                !
 ! R33   R(30,34)                1.2237         estimate D2E/DX2                !
 ! R34   R(31,32)                1.3359         estimate D2E/DX2                !
 ! R35   R(31,33)                1.488          estimate D2E/DX2                !
 ! R36   R(32,35)                1.0871         estimate D2E/DX2                !
 ! R37   R(32,36)                1.0875         estimate D2E/DX2                !
 ! R38   R(33,37)                1.0986         estimate D2E/DX2                !
 ! R39   R(33,38)                1.1004         estimate D2E/DX2                !
 ! R40   R(33,39)                1.0985         estimate D2E/DX2                !
 ! A1    A(2,1,25)             112.8286         estimate D2E/DX2                !
 ! A2    A(2,1,30)             121.496          estimate D2E/DX2                !
 ! A3    A(25,1,30)            115.028          estimate D2E/DX2                !
 ! A4    A(1,2,3)              107.535          estimate D2E/DX2                !
 ! A5    A(1,2,4)              115.5466         estimate D2E/DX2                !
 ! A6    A(1,2,6)              110.3158         estimate D2E/DX2                !
 ! A7    A(3,2,4)              104.5498         estimate D2E/DX2                !
 ! A8    A(3,2,6)              106.4781         estimate D2E/DX2                !
 ! A9    A(4,2,6)              111.7667         estimate D2E/DX2                !
 ! A10   A(2,4,5)              126.825          estimate D2E/DX2                !
 ! A11   A(2,4,24)             114.7907         estimate D2E/DX2                !
 ! A12   A(5,4,24)             118.3075         estimate D2E/DX2                !
 ! A13   A(2,6,7)              107.0607         estimate D2E/DX2                !
 ! A14   A(2,6,8)              107.4695         estimate D2E/DX2                !
 ! A15   A(2,6,9)              122.0225         estimate D2E/DX2                !
 ! A16   A(7,6,8)              105.6735         estimate D2E/DX2                !
 ! A17   A(7,6,9)              106.7579         estimate D2E/DX2                !
 ! A18   A(8,6,9)              106.8039         estimate D2E/DX2                !
 ! A19   A(6,9,10)             118.614          estimate D2E/DX2                !
 ! A20   A(6,9,12)             134.2393         estimate D2E/DX2                !
 ! A21   A(10,9,12)            107.1466         estimate D2E/DX2                !
 ! A22   A(9,10,11)            127.8735         estimate D2E/DX2                !
 ! A23   A(9,10,13)            109.8254         estimate D2E/DX2                !
 ! A24   A(11,10,13)           122.2535         estimate D2E/DX2                !
 ! A25   A(9,12,15)            107.1709         estimate D2E/DX2                !
 ! A26   A(9,12,16)            135.0725         estimate D2E/DX2                !
 ! A27   A(15,12,16)           117.7559         estimate D2E/DX2                !
 ! A28   A(10,13,14)           123.4973         estimate D2E/DX2                !
 ! A29   A(10,13,15)           107.7052         estimate D2E/DX2                !
 ! A30   A(14,13,15)           123.2143         estimate D2E/DX2                !
 ! A31   A(12,15,13)           107.8906         estimate D2E/DX2                !
 ! A32   A(12,15,18)           122.752          estimate D2E/DX2                !
 ! A33   A(13,15,18)           129.3056         estimate D2E/DX2                !
 ! A34   A(12,16,17)           120.9182         estimate D2E/DX2                !
 ! A35   A(12,16,20)           119.5342         estimate D2E/DX2                !
 ! A36   A(17,16,20)           119.5474         estimate D2E/DX2                !
 ! A37   A(15,18,19)           120.9949         estimate D2E/DX2                !
 ! A38   A(15,18,22)           117.4543         estimate D2E/DX2                !
 ! A39   A(19,18,22)           121.5504         estimate D2E/DX2                !
 ! A40   A(16,20,21)           119.6043         estimate D2E/DX2                !
 ! A41   A(16,20,22)           121.6387         estimate D2E/DX2                !
 ! A42   A(21,20,22)           118.7568         estimate D2E/DX2                !
 ! A43   A(18,22,20)           120.8637         estimate D2E/DX2                !
 ! A44   A(18,22,23)           119.9806         estimate D2E/DX2                !
 ! A45   A(20,22,23)           119.1557         estimate D2E/DX2                !
 ! A46   A(4,24,26)            118.717          estimate D2E/DX2                !
 ! A47   A(24,26,27)           102.2637         estimate D2E/DX2                !
 ! A48   A(24,26,28)           111.9972         estimate D2E/DX2                !
 ! A49   A(24,26,29)           111.5402         estimate D2E/DX2                !
 ! A50   A(27,26,28)           110.4536         estimate D2E/DX2                !
 ! A51   A(27,26,29)           110.5717         estimate D2E/DX2                !
 ! A52   A(28,26,29)           109.8228         estimate D2E/DX2                !
 ! A53   A(1,30,31)            117.743          estimate D2E/DX2                !
 ! A54   A(1,30,34)            118.7314         estimate D2E/DX2                !
 ! A55   A(31,30,34)           123.4259         estimate D2E/DX2                !
 ! A56   A(30,31,32)           119.6797         estimate D2E/DX2                !
 ! A57   A(30,31,33)           119.0513         estimate D2E/DX2                !
 ! A58   A(32,31,33)           121.2645         estimate D2E/DX2                !
 ! A59   A(31,32,35)           122.4911         estimate D2E/DX2                !
 ! A60   A(31,32,36)           123.0012         estimate D2E/DX2                !
 ! A61   A(35,32,36)           114.5063         estimate D2E/DX2                !
 ! A62   A(31,33,37)           111.7612         estimate D2E/DX2                !
 ! A63   A(31,33,38)           111.4034         estimate D2E/DX2                !
 ! A64   A(31,33,39)           111.3301         estimate D2E/DX2                !
 ! A65   A(37,33,38)           107.0353         estimate D2E/DX2                !
 ! A66   A(37,33,39)           107.3101         estimate D2E/DX2                !
 ! A67   A(38,33,39)           107.7665         estimate D2E/DX2                !
 ! D1    D(25,1,2,3)           166.9149         estimate D2E/DX2                !
 ! D2    D(25,1,2,4)            50.6171         estimate D2E/DX2                !
 ! D3    D(25,1,2,6)           -77.3517         estimate D2E/DX2                !
 ! D4    D(30,1,2,3)            24.1424         estimate D2E/DX2                !
 ! D5    D(30,1,2,4)           -92.1555         estimate D2E/DX2                !
 ! D6    D(30,1,2,6)           139.8757         estimate D2E/DX2                !
 ! D7    D(2,1,30,31)          164.6548         estimate D2E/DX2                !
 ! D8    D(2,1,30,34)          -18.8505         estimate D2E/DX2                !
 ! D9    D(25,1,30,31)          22.6339         estimate D2E/DX2                !
 ! D10   D(25,1,30,34)        -160.8714         estimate D2E/DX2                !
 ! D11   D(1,2,4,5)           -164.3309         estimate D2E/DX2                !
 ! D12   D(1,2,4,24)            18.9346         estimate D2E/DX2                !
 ! D13   D(3,2,4,5)             77.696          estimate D2E/DX2                !
 ! D14   D(3,2,4,24)           -99.0384         estimate D2E/DX2                !
 ! D15   D(6,2,4,5)            -37.0868         estimate D2E/DX2                !
 ! D16   D(6,2,4,24)           146.1788         estimate D2E/DX2                !
 ! D17   D(1,2,6,7)           -172.3136         estimate D2E/DX2                !
 ! D18   D(1,2,6,8)            -59.1825         estimate D2E/DX2                !
 ! D19   D(1,2,6,9)             64.4797         estimate D2E/DX2                !
 ! D20   D(3,2,6,7)            -55.9193         estimate D2E/DX2                !
 ! D21   D(3,2,6,8)             57.2118         estimate D2E/DX2                !
 ! D22   D(3,2,6,9)           -179.1261         estimate D2E/DX2                !
 ! D23   D(4,2,6,7)             57.6717         estimate D2E/DX2                !
 ! D24   D(4,2,6,8)            170.8028         estimate D2E/DX2                !
 ! D25   D(4,2,6,9)            -65.5351         estimate D2E/DX2                !
 ! D26   D(2,4,24,26)          178.5061         estimate D2E/DX2                !
 ! D27   D(5,4,24,26)            1.4748         estimate D2E/DX2                !
 ! D28   D(2,6,9,10)           178.0002         estimate D2E/DX2                !
 ! D29   D(2,6,9,12)            -1.8446         estimate D2E/DX2                !
 ! D30   D(7,6,9,10)            54.6532         estimate D2E/DX2                !
 ! D31   D(7,6,9,12)          -125.1916         estimate D2E/DX2                !
 ! D32   D(8,6,9,10)           -58.0313         estimate D2E/DX2                !
 ! D33   D(8,6,9,12)           122.1239         estimate D2E/DX2                !
 ! D34   D(6,9,10,11)           -0.655          estimate D2E/DX2                !
 ! D35   D(6,9,10,13)          176.8497         estimate D2E/DX2                !
 ! D36   D(12,9,10,11)         179.2286         estimate D2E/DX2                !
 ! D37   D(12,9,10,13)          -3.2667         estimate D2E/DX2                !
 ! D38   D(6,9,12,15)         -179.9913         estimate D2E/DX2                !
 ! D39   D(6,9,12,16)            0.3146         estimate D2E/DX2                !
 ! D40   D(10,9,12,15)           0.1514         estimate D2E/DX2                !
 ! D41   D(10,9,12,16)        -179.5427         estimate D2E/DX2                !
 ! D42   D(9,10,13,14)         159.4297         estimate D2E/DX2                !
 ! D43   D(9,10,13,15)           5.1649         estimate D2E/DX2                !
 ! D44   D(11,10,13,14)        -22.8993         estimate D2E/DX2                !
 ! D45   D(11,10,13,15)       -177.1641         estimate D2E/DX2                !
 ! D46   D(9,12,15,13)           2.9794         estimate D2E/DX2                !
 ! D47   D(9,12,15,18)        -179.4175         estimate D2E/DX2                !
 ! D48   D(16,12,15,13)       -177.2647         estimate D2E/DX2                !
 ! D49   D(16,12,15,18)          0.3383         estimate D2E/DX2                !
 ! D50   D(9,12,16,17)          -0.5638         estimate D2E/DX2                !
 ! D51   D(9,12,16,20)         179.2877         estimate D2E/DX2                !
 ! D52   D(15,12,16,17)        179.7665         estimate D2E/DX2                !
 ! D53   D(15,12,16,20)         -0.382          estimate D2E/DX2                !
 ! D54   D(10,13,15,12)         -4.9577         estimate D2E/DX2                !
 ! D55   D(10,13,15,18)        177.6477         estimate D2E/DX2                !
 ! D56   D(14,13,15,12)       -159.3122         estimate D2E/DX2                !
 ! D57   D(14,13,15,18)         23.2933         estimate D2E/DX2                !
 ! D58   D(12,15,18,19)        179.7329         estimate D2E/DX2                !
 ! D59   D(12,15,18,22)         -0.0357         estimate D2E/DX2                !
 ! D60   D(13,15,18,19)         -3.2155         estimate D2E/DX2                !
 ! D61   D(13,15,18,22)        177.0159         estimate D2E/DX2                !
 ! D62   D(12,16,20,21)       -179.6896         estimate D2E/DX2                !
 ! D63   D(12,16,20,22)          0.1414         estimate D2E/DX2                !
 ! D64   D(17,16,20,21)          0.1639         estimate D2E/DX2                !
 ! D65   D(17,16,20,22)        179.9949         estimate D2E/DX2                !
 ! D66   D(15,18,22,20)         -0.2216         estimate D2E/DX2                !
 ! D67   D(15,18,22,23)        179.7089         estimate D2E/DX2                !
 ! D68   D(19,18,22,20)       -179.9889         estimate D2E/DX2                !
 ! D69   D(19,18,22,23)         -0.0584         estimate D2E/DX2                !
 ! D70   D(16,20,22,18)          0.1748         estimate D2E/DX2                !
 ! D71   D(16,20,22,23)       -179.7562         estimate D2E/DX2                !
 ! D72   D(21,20,22,18)       -179.9928         estimate D2E/DX2                !
 ! D73   D(21,20,22,23)          0.0762         estimate D2E/DX2                !
 ! D74   D(4,24,26,27)        -178.1862         estimate D2E/DX2                !
 ! D75   D(4,24,26,28)         -59.9246         estimate D2E/DX2                !
 ! D76   D(4,24,26,29)          63.6246         estimate D2E/DX2                !
 ! D77   D(1,30,31,32)        -162.8782         estimate D2E/DX2                !
 ! D78   D(1,30,31,33)          17.8862         estimate D2E/DX2                !
 ! D79   D(34,30,31,32)         20.805          estimate D2E/DX2                !
 ! D80   D(34,30,31,33)       -158.4307         estimate D2E/DX2                !
 ! D81   D(30,31,32,35)       -179.5625         estimate D2E/DX2                !
 ! D82   D(30,31,32,36)         -0.0274         estimate D2E/DX2                !
 ! D83   D(33,31,32,35)         -0.3442         estimate D2E/DX2                !
 ! D84   D(33,31,32,36)        179.1909         estimate D2E/DX2                !
 ! D85   D(30,31,33,37)        172.763          estimate D2E/DX2                !
 ! D86   D(30,31,33,38)        -67.5493         estimate D2E/DX2                !
 ! D87   D(30,31,33,39)         52.7755         estimate D2E/DX2                !
 ! D88   D(32,31,33,37)         -6.4601         estimate D2E/DX2                !
 ! D89   D(32,31,33,38)        113.2276         estimate D2E/DX2                !
 ! D90   D(32,31,33,39)       -126.4476         estimate D2E/DX2                !
 --------------------------------------------------------------------------------
 Trust Radius=3.00D-01 FncErr=1.00D-07 GrdErr=1.00D-06
 Number of steps in this run=    207 maximum allowed number of steps=    234.
 GradGradGradGradGradGradGradGradGradGradGradGradGradGradGradGradGradGrad

 Leave Link  103 at Mon Dec 18 20:36:13 2023, MaxMem=   805306368 cpu:         0.3
 (Enter /truba/home/eraksoy/apps/g09/l202.exe)
                          Input orientation:                          
 ---------------------------------------------------------------------
 Center     Atomic      Atomic             Coordinates (Angstroms)
 Number     Number       Type             X           Y           Z
 ---------------------------------------------------------------------
      1          7           0       -3.081700    2.391900    1.114200
      2          6           0       -2.944400    3.853700    1.311100
      3          1           0       -3.683700    4.358000    0.630800
      4          6           0       -1.590400    4.448700    0.916200
      5          8           0       -1.157200    5.539800    1.225100
      6          6           0       -3.338300    4.237300    2.742000
      7          1           0       -3.352400    5.348000    2.789800
      8          1           0       -4.391600    3.916700    2.895500
      9          6           0       -2.570100    3.767600    3.923000
     10          6           0       -2.964100    4.191700    5.183000
     11          1           0       -3.789500    4.858400    5.437700
     12          6           0       -1.418400    2.910700    4.102200
     13          7           0       -2.159100    3.582600    6.165500
     14          1           0       -2.052900    3.938500    7.080600
     15          6           0       -1.156000    2.845600    5.501800
     16          6           0       -0.572000    2.192900    3.245000
     17          1           0       -0.728700    2.203400    2.159900
     18          6           0       -0.093700    2.106100    6.040800
     19          1           0        0.084000    2.079700    7.120300
     20          6           0        0.474200    1.465900    3.774300
     21          1           0        1.138900    0.909100    3.105600
     22          6           0        0.715800    1.421700    5.159600
     23          1           0        1.560300    0.834900    5.535300
     24          8           0       -0.843000    3.667400    0.075600
     25          1           0       -2.326200    1.871900    1.520200
     26          6           0        0.407500    4.150800   -0.367100
     27          1           0        0.744400    3.350000   -1.030300
     28          1           0        0.311300    5.091000   -0.920500
     29          1           0        1.106500    4.280100    0.466100
     30          6           0       -3.606100    1.849000   -0.096100
     31          6           0       -3.390200    0.393000   -0.356600
     32          6           0       -3.546200   -0.088000   -1.593100
     33          6           0       -3.020700   -0.496900    0.777300
     34          8           0       -4.260600    2.575600   -0.831700
     35          1           0       -3.407700   -1.139300   -1.832500
     36          1           0       -3.828100    0.534000   -2.439400
     37          1           0       -3.016400   -1.554600    0.480300
     38          1           0       -2.014800   -0.265000    1.158500
     39          1           0       -3.727300   -0.394700    1.612100
 ---------------------------------------------------------------------
                    Distance matrix (angstroms):
                    1          2          3          4          5
     1  N    0.000000
     2  C    1.481378   0.000000
     3  H    2.112257   1.124140   0.000000
     4  C    2.548255   1.530780   2.114612   0.000000
     5  O    3.691243   2.458539   2.851850   1.213911   0.000000
     6  C    2.474081   1.532900   2.142670   2.536413   2.958832
     7  H    3.408730   2.141483   2.398154   2.724658   2.702587
     8  H    2.685867   2.146784   2.413449   3.470933   3.985729
     9  C    3.169171   2.639988   3.525232   3.234897   3.523584
    10  C    4.450645   3.886675   4.611725   4.489842   4.554913
    11  H    5.027649   4.330409   4.834034   5.044587   5.013911
    12  C    3.458882   3.317855   4.390544   3.541980   3.906161
    13  N    5.271109   4.924976   5.792975   5.350579   5.407586
    14  H    6.248866   5.838587   6.665989   6.202744   6.136230
    15  C    4.813024   4.666541   5.692386   4.877126   5.054590
    16  C    3.298258   3.482314   4.604821   3.398394   3.952745
    17  H    2.581788   2.890204   3.963896   2.707524   3.491279
    18  C    5.768987   5.792293   6.872209   5.830044   6.009351
    19  H    6.796496   6.787127   7.842182   6.848842   6.947392
    20  C    4.536302   4.843116   5.961037   4.618269   5.075091
    21  H    4.896717   5.344552   6.424719   4.977079   5.500158
    22  C    5.632722   5.841459   6.963296   5.699801   5.995596
    23  H    6.596858   6.873816   7.997868   6.657518   6.935324
    24  O    2.778015   2.444801   2.975694   1.369542   2.219449
    25  H    1.003004   2.086486   2.968928   2.747019   3.860976
    26  C    4.178815   3.760300   4.216237   2.393159   2.629203
    27  H    4.489530   4.398081   4.835637   3.232228   3.673981
    28  H    4.789321   4.136488   4.347855   2.720750   2.638468
    29  H    4.639650   4.160004   4.793664   2.739395   2.699493
    30  C    1.426381   2.537101   2.613329   3.441836   4.622195
    31  C    2.500805   3.867351   4.096624   4.616059   5.829032
    32  C    3.700694   4.932904   4.973083   5.541064   6.732140
    33  C    2.909018   4.383889   4.902151   5.150147   6.333633
    34  O    2.282559   2.820907   2.376693   3.700490   4.758991
    35  H    4.610715   5.918354   6.030284   6.487193   7.682711
    36  H    4.078845   5.086018   4.906114   5.620696   6.754280
    37  H    3.997619   5.472214   5.952040   6.185717   7.371693
    38  H    2.863452   4.225060   4.943260   4.738965   5.868187
    39  H    2.903419   4.330408   4.853144   5.339395   6.478694
                    6          7          8          9         10
     6  C    0.000000
     7  H    1.111817   0.000000
     8  H    1.111660   1.771928   0.000000
     9  C    1.485096   2.096139   2.096628   0.000000
    10  C    2.469936   2.686115   2.710357   1.386613   0.000000
    11  H    2.802882   2.728028   2.777068   2.229596   1.091167
    12  C    2.701116   3.376860   3.362749   1.446652   2.279973
    13  N    3.679606   3.991986   3.973484   2.287346   1.408664
    14  H    4.534863   4.699612   4.794273   3.204238   2.120208
    15  C    3.783617   4.294313   4.290590   2.311357   2.276586
    16  C    3.476348   4.229951   4.205114   2.632825   3.670584
    17  H    3.359405   4.143559   4.110151   2.990986   4.253173
    18  C    5.094264   5.630101   5.625223   3.657624   3.650307
    19  H    5.961282   6.422138   6.422967   4.485084   4.183849
    20  C    4.825086   5.539206   5.518580   3.819384   4.608289
    21  H    5.590567   6.322605   6.298907   4.753509   5.650280
    22  C    5.496191   6.130419   6.118554   4.222507   4.605986
    23  H    6.585980   7.213908   7.203551   5.316055   5.644680
    24  O    3.696079   4.060589   4.539444   4.218460   5.555132
    25  H    2.848203   3.840344   3.215359   3.070279   4.382293
    26  C    4.868778   5.053331   5.807816   5.236211   6.494072
    27  H    5.629031   5.947179   6.489341   5.974570   7.284678
    28  H    5.240448   5.220639   6.169125   5.789071   6.984962
    29  H    4.993776   5.140212   6.021889   5.072495   6.231111
    30  C    3.718939   4.542663   3.720492   4.572471   5.811136
    31  C    4.937880   5.869692   4.898512   5.511394   6.730442
    32  C    6.127360   6.985518   6.074525   6.800425   8.035559
    33  C    5.135520   6.190560   5.083896   5.318311   6.434001
    34  O    4.047619   4.650408   3.963298   5.185154   6.361549
    35  H    7.059653   7.965788   6.991794   7.609535   8.822334
    36  H    6.387585   7.123582   6.342030   7.246990   8.498603
    37  H    6.226155   7.286465   6.136733   6.354304   7.425502
    38  H    4.952760   5.996339   5.113997   4.920638   6.079469
    39  H    4.783662   5.874192   4.547151   4.899399   5.862497
                   11         12         13         14         15
    11  H    0.000000
    12  C    3.346522   0.000000
    13  N    2.194439   2.292879   0.000000
    14  H    2.561468   3.214005   0.987599   0.000000
    15  C    3.315237   1.425473   1.410630   2.119309   0.000000
    16  C    4.718594   1.402292   3.602704   4.466767   2.420789
    17  H    5.211669   2.179103   4.471361   5.383063   3.429767
    18  C    4.647346   2.482012   2.541944   2.877036   1.402092
    19  H    5.055326   3.472275   2.863887   2.832500   2.178014
    20  C    5.696937   2.403518   4.139145   4.840620   2.746886
    21  H    6.732369   3.396969   5.233297   5.930049   3.841663
    22  C    5.673268   2.808919   3.734484   4.205975   2.376600
    23  H    6.694657   3.903252   4.667006   5.007544   3.379693
    24  O    6.233174   4.137292   6.231067   7.113886   5.496997
    25  H    5.138797   2.927444   4.953103   5.938314   4.262698
    26  C    7.198000   4.984616   7.041672   7.846456   6.212251
    27  H    8.041551   5.586881   7.762986   8.599879   6.821603
    28  H    7.569503   5.742220   7.654381   8.422310   6.959937
    29  H    7.001575   4.633746   6.605589   7.338263   5.703943
    30  C    6.301830   4.851697   6.656336   7.634361   6.191340
    31  C    7.326196   5.487049   7.363895   8.346909   6.732588
    32  C    8.599896   6.779099   8.694436   9.678622   8.040937
    33  C    7.140702   5.023352   6.813030   7.767947   6.080322
    34  O    6.688684   5.703837   7.375036   8.326820   7.058659
    35  H    9.432602   7.455232   9.371411  10.347120   8.645319
    36  H    8.986135   7.365317   9.280292  10.265104   8.691736
    37  H    8.142485   5.967467   7.710207   8.640974   6.930967
    38  H    6.907267   4.371056   6.316241   7.262378   5.410880
    39  H    6.498780   4.738912   6.245928   7.175286   5.678107
                   16         17         18         19         20
    16  C    0.000000
    17  H    1.096406   0.000000
    18  C    2.837746   3.933710   0.000000
    19  H    3.932061   5.028056   1.094347   0.000000
    20  C    1.379573   2.144099   2.422682   3.424138   0.000000
    21  H    2.143538   2.461197   3.401104   4.312880   1.094994
    22  C    2.432873   3.419917   1.378480   2.162517   1.406905
    23  H    3.411208   4.301818   2.146438   2.498242   2.163075
    24  O    3.506093   2.549641   6.211499   7.280654   4.501333
    25  H    2.480966   1.752460   5.047250   6.100276   3.617740
    26  C    4.223749   3.386598   6.744863   7.775298   4.936024
    27  H    4.620604   3.696227   7.228427   8.275389   5.167884
    28  H    5.150786   4.348413   7.585074   8.589183   5.933720
    29  H    3.859540   3.248015   6.102789   7.082771   4.389045
    30  C    4.526254   3.673495   7.075634   8.108421   5.636986
    31  C    4.914612   4.085817   7.397861   8.415406   5.757520
    32  C    6.120097   5.222435   8.660846   9.685072   6.883836
    33  C    4.395532   3.802166   6.561049   7.517425   5.004889
    34  O    5.511054   4.643546   8.050760   9.075008   6.698134
    35  H    6.702668   5.855761   9.138056  10.134424   7.300166
    36  H    6.757702   5.791955   9.398459  10.444213   7.615004
    37  H    5.259507   4.709267   7.270630   8.179867   5.670815
    38  H    3.532199   2.958015   5.757568   6.741338   4.004191
    39  H    4.395219   4.005223   6.250635   7.140653   5.078341
                   21         22         23         24         25
    21  H    0.000000
    22  C    2.158863   0.000000
    23  H    2.467089   1.094836   0.000000
    24  O    4.551598   5.772355   6.603577   0.000000
    25  H    3.930317   4.764628   5.683421   2.740542   0.000000
    26  C    4.806580   6.171503   6.867493   1.411881   4.028449
    27  H    4.818640   6.483365   7.078031   1.960509   4.256573
    28  H    5.863676   7.113016   7.832735   2.085968   4.824524
    29  H    4.281548   5.509268   6.145903   2.080491   4.323654
    30  C    5.800803   6.817902   7.709264   3.312217   2.061818
    31  C    5.724154   6.953123   7.708256   4.170938   2.615649
    32  C    6.709855   8.126672   8.817152   4.918829   3.875854
    33  C    4.969918   6.070174   6.737790   4.751437   2.577876
    34  O    6.887246   7.873482   8.800659   3.700704   3.125465
    35  H    7.018002   8.511841   9.102910   5.772599   4.634389
    36  H    7.453779   8.898305   9.629187   5.005421   4.441184
    37  H    5.498048   6.684574   7.225574   5.670691   3.646734
    38  H    3.887870   5.129321   5.757386   4.243767   2.189552
    39  H    5.254554   5.968685   6.697920   5.213509   2.666271
                   26         27         28         29         30
    26  C    0.000000
    27  H    1.092985   0.000000
    28  H    1.095209   1.797418   0.000000
    29  H    1.095236   1.798726   1.792362   0.000000
    30  C    4.634729   4.696018   5.151332   5.332440   0.000000
    31  C    5.342630   5.127635   6.007519   6.000558   1.494794
    32  C    5.924715   5.526829   6.492668   6.705835   2.448789
    33  C    5.887557   5.678207   6.723792   6.320629   2.570752
    34  O    4.948562   5.068448   5.218946   5.778873   1.223693
    35  H    6.684931   6.167437   7.312957   7.418319   3.461847
    36  H    5.942725   5.551862   6.340973   6.842914   2.696213
    37  H    6.707665   6.362439   7.563057   7.144385   3.502067
    38  H    5.262536   5.047005   6.198364   5.556965   2.928353
    39  H    6.455647   6.403215   7.267548   6.821488   2.822557
                   31         32         33         34         35
    31  C    0.000000
    32  C    1.335900   0.000000
    33  C    1.488013   2.462142   0.000000
    34  O    2.397302   2.860920   3.683272   0.000000
    35  H    2.127564   1.087072   2.715419   3.940751   0.000000
    36  H    2.133001   1.087463   3.473011   2.634366   1.828933
    37  H    2.152504   2.594338   1.098616   4.508651   2.382149
    38  H    2.149469   3.154016   1.100421   4.132012   3.413305
    39  H    2.147065   3.224929   1.098462   3.883201   3.538622
                   36         37         38         39
    36  H    0.000000
    37  H    3.680456   0.000000
    38  H    4.107474   1.768114   0.000000
    39  H    4.157799   1.769666   1.776297   0.000000
 Stoichiometry    C16H18N2O3
 Framework group  C1[X(C16H18N2O3)]
 Deg. of freedom   111
 Full point group                 C1      NOp   1
 Largest Abelian subgroup         C1      NOp   1
 Largest concise Abelian subgroup C1      NOp   1
                         Standard orientation:                         
 ---------------------------------------------------------------------
 Center     Atomic      Atomic             Coordinates (Angstroms)
 Number     Number       Type             X           Y           Z
 ---------------------------------------------------------------------
      1          7           0        1.435394   -0.142252   -0.739194
      2          6           0        0.920221    1.240036   -0.874683
      3          1           0        1.690797    1.835115   -1.436631
      4          6           0        0.726359    2.003882    0.437659
      5          8           0        0.084263    3.021313    0.599305
      6          6           0       -0.349873    1.252924   -1.732865
      7          1           0       -0.608566    2.318495   -1.916646
      8          1           0       -0.085030    0.832365   -2.727237
      9          6           0       -1.599604    0.577393   -1.300035
     10          6           0       -2.719655    0.669179   -2.112289
     11          1           0       -2.817455    1.199071   -3.061128
     12          6           0       -1.971847   -0.214704   -0.148158
     13          7           0       -3.770372   -0.093013   -1.565123
     14          1           0       -4.721236    0.047649   -1.791892
     15          6           0       -3.338532   -0.583844   -0.315134
     16          6           0       -1.313795   -0.653057    1.009960
     17          1           0       -0.261572   -0.402367    1.189089
     18          6           0       -4.037417   -1.351703    0.627105
     19          1           0       -5.088176   -1.615048    0.471700
     20          6           0       -2.000928   -1.407670    1.938200
     21          1           0       -1.489649   -1.746256    2.845374
     22          6           0       -3.351732   -1.754677    1.753007
     23          1           0       -3.858735   -2.351818    2.517882
     24          8           0        1.413877    1.493125    1.506346
     25          1           0        0.916226   -0.687851   -0.076772
     26          6           0        1.319976    2.152508    2.751258
     27          1           0        1.981208    1.552903    3.382021
     28          1           0        1.677509    3.186235    2.695941
     29          1           0        0.296199    2.133902    3.139944
     30          6           0        2.832450   -0.425278   -0.791079
     31          6           0        3.290089   -1.762408   -0.304194
     32          6           0        4.579011   -1.953448   -0.009550
     33          6           0        2.296822   -2.862697   -0.173945
     34          8           0        3.582644    0.404254   -1.287579
     35          1           0        4.962553   -2.908248    0.341134
     36          1           0        5.330666   -1.173596   -0.106605
     37          1           0        2.778645   -3.819775    0.068555
     38          1           0        1.570597   -2.655455    0.626413
     39          1           0        1.735321   -3.006618   -1.107017
 ---------------------------------------------------------------------
 Rotational constants (GHZ):      0.4224529      0.2105229      0.1952804
 Leave Link  202 at Mon Dec 18 20:36:13 2023, MaxMem=   805306368 cpu:         0.2
 (Enter /truba/home/eraksoy/apps/g09/l301.exe)
 Standard basis: 6-31G(d) (6D, 7F)
 Ernie: Thresh=  0.10000D-02 Tol=  0.10000D-05 Strict=F.
 There are   351 symmetry adapted cartesian basis functions of A   symmetry.
 There are   351 symmetry adapted basis functions of A   symmetry.
   351 basis functions,   660 primitive gaussians,   351 cartesian basis functions
    76 alpha electrons       76 beta electrons
       nuclear repulsion energy      1673.9025488653 Hartrees.
 IExCor=  402 DFT=T Ex+Corr=B3LYP ExCW=0 ScaHFX=  0.200000
 ScaDFX=  0.800000  0.720000  1.000000  0.810000 ScalE2=  1.000000  1.000000
 IRadAn=      0 IRanWt=     -1 IRanGd=            0 ICorTp=0 IEmpDi=  4
 NAtoms=   39 NActive=   39 NUniq=   39 SFac= 1.00D+00 NAtFMM=   60 NAOKFM=F Big=F
 Integral buffers will be    131072 words long.
 Raffenetti 2 integral format.
 Two-electron integral symmetry is turned on.
 Leave Link  301 at Mon Dec 18 20:36:13 2023, MaxMem=   805306368 cpu:         1.2
 (Enter /truba/home/eraksoy/apps/g09/l302.exe)
 NPDir=0 NMtPBC=     1 NCelOv=     1 NCel=       1 NClECP=     1 NCelD=      1
         NCelK=      1 NCelE2=     1 NClLst=     1 CellRange=     0.0.
 One-electron integrals computed using PRISM.
 NBasis=   351 RedAO= T EigKep=  3.43D-04  NBF=   351
 NBsUse=   351 1.00D-06 EigRej= -1.00D+00 NBFU=   351
 Precomputing XC quadrature grid using
 IXCGrd= 4 IRadAn=           0 IRanWt=          -1 IRanGd=           0 AccXCQ= 0.00D+00.
 Generated NRdTot=       0 NPtTot=           0 NUsed=           0 NTot=          32
 NSgBfM=   350   350   350   350   350 MxSgAt=    39 MxSgA2=    39.
 Leave Link  302 at Mon Dec 18 20:36:13 2023, MaxMem=   805306368 cpu:         9.3
 (Enter /truba/home/eraksoy/apps/g09/l303.exe)
 DipDrv:  MaxL=1.
 Leave Link  303 at Mon Dec 18 20:36:14 2023, MaxMem=   805306368 cpu:         1.0
 (Enter /truba/home/eraksoy/apps/g09/l401.exe)
 ExpMin= 1.61D-01 ExpMax= 5.48D+03 ExpMxC= 8.25D+02 IAcc=1 IRadAn=         1 AccDes= 0.00D+00
 Harris functional with IExCor=  402 and IRadAn=       1 diagonalized for initial guess.
 HarFok:  IExCor=  402 AccDes= 0.00D+00 IRadAn=         1 IDoV= 1 UseB2=F ITyADJ=14
 ICtDFT=  3500011 ScaDFX=  1.000000  1.000000  1.000000  1.000000
 FoFCou: FMM=F IPFlag=           0 FMFlag=      100000 FMFlg1=           0
         NFxFlg=           0 DoJE=T BraDBF=F KetDBF=T FulRan=T
         wScrn=  0.000000 ICntrl=     500 IOpCl=  0 I1Cent=   200000004 NGrid=           0
         NMat0=    1 NMatS0=      1 NMatT0=    0 NMatD0=    1 NMtDS0=    0 NMtDT0=    0
 Petite list used in FoFCou.
 Harris En= -955.722626467443    
 JPrj=0 DoOrth=F DoCkMO=F.
 Leave Link  401 at Mon Dec 18 20:36:14 2023, MaxMem=   805306368 cpu:        11.4
 (Enter /truba/home/eraksoy/apps/g09/l502.exe)
 Closed shell SCF:
 Using DIIS extrapolation, IDIIS=  1040.
 Integral symmetry usage will be decided dynamically.
 IVT=      400636 IEndB=      400636 NGot=   805306368 MDV=   805045925
 LenX=   805045925 LenY=   804922283
 Requested convergence on RMS density matrix=1.00D-08 within 128 cycles.
 Requested convergence on MAX density matrix=1.00D-06.
 Requested convergence on             energy=1.00D-06.
 No special actions if energy rises.
 Fock matrices will be formed incrementally for  20 cycles.
 Integral accuracy reduced to 1.0D-05 until final iterations.

 Cycle   1  Pass 0  IDiag  1:
 FoFJK:  IHMeth= 1 ICntrl=       0 DoSepK=F KAlg= 0 I1Cent=   0 FoldK=F
 IRaf= 760000000 NMat=   1 IRICut=       1 DoRegI=T DoRafI=F ISym2E= 0.
 FoFCou: FMM=F IPFlag=           0 FMFlag=      100000 FMFlg1=           0
         NFxFlg=           0 DoJE=F BraDBF=F KetDBF=F FulRan=T
         wScrn=  0.000000 ICntrl=       0 IOpCl=  0 I1Cent=           0 NGrid=           0
         NMat0=    1 NMatS0=      1 NMatT0=    0 NMatD0=    1 NMtDS0=    0 NMtDT0=    0
 Symmetry not used in FoFCou.
 E= -955.169984680912    
 DIIS: error= 3.08D-02 at cycle   1 NSaved=   1.
 NSaved= 1 IEnMin= 1 EnMin= -955.169984680912     IErMin= 1 ErrMin= 3.08D-02
 ErrMax= 3.08D-02  0.00D+00 EMaxC= 1.00D-01 BMatC= 5.60D-01 BMatP= 5.60D-01
 IDIUse=3 WtCom= 6.92D-01 WtEn= 3.08D-01
 Coeff-Com:  0.100D+01
 Coeff-En:   0.100D+01
 Coeff:      0.100D+01
 Gap=     0.161 Goal=   None    Shift=    0.000
 GapD=    0.161 DampG=1.000 DampE=0.500 DampFc=0.5000 IDamp=-1.
 Damping current iteration by 5.00D-01
 RMSDP=5.25D-03 MaxDP=2.05D-01              OVMax= 2.60D-01

 Cycle   2  Pass 0  IDiag  1:
 RMSU=  2.60D-03    CP:  9.81D-01
 E= -955.331920276681     Delta-E=       -0.161935595770 Rises=F Damp=T
 DIIS: error= 1.31D-02 at cycle   2 NSaved=   2.
 NSaved= 2 IEnMin= 2 EnMin= -955.331920276681     IErMin= 2 ErrMin= 1.31D-02
 ErrMax= 1.31D-02  0.00D+00 EMaxC= 1.00D-01 BMatC= 9.05D-02 BMatP= 5.60D-01
 IDIUse=3 WtCom= 8.69D-01 WtEn= 1.31D-01
 Coeff-Com:  0.206D+00 0.794D+00
 Coeff-En:   0.309D+00 0.691D+00
 Coeff:      0.219D+00 0.781D+00
 Gap=     0.225 Goal=   None    Shift=    0.000
 RMSDP=1.77D-03 MaxDP=9.57D-02 DE=-1.62D-01 OVMax= 1.78D-01

 Cycle   3  Pass 0  IDiag  1:
 RMSU=  1.62D-03    CP:  9.65D-01  7.46D-01
 E= -955.617408581956     Delta-E=       -0.285488305274 Rises=F Damp=F
 DIIS: error= 1.42D-02 at cycle   3 NSaved=   3.
 NSaved= 3 IEnMin= 3 EnMin= -955.617408581956     IErMin= 2 ErrMin= 1.31D-02
 ErrMax= 1.42D-02  0.00D+00 EMaxC= 1.00D-01 BMatC= 9.80D-02 BMatP= 9.05D-02
 IDIUse=3 WtCom= 8.58D-01 WtEn= 1.42D-01
 Coeff-Com:  0.555D-01 0.501D+00 0.444D+00
 Coeff-En:   0.000D+00 0.000D+00 0.100D+01
 Coeff:      0.476D-01 0.430D+00 0.523D+00
 Gap=     0.169 Goal=   None    Shift=    0.000
 RMSDP=1.19D-03 MaxDP=5.81D-02 DE=-2.85D-01 OVMax= 1.04D-01

 Cycle   4  Pass 0  IDiag  1:
 RMSU=  8.09D-04    CP:  9.70D-01  8.43D-01  4.85D-01
 E= -955.682387403763     Delta-E=       -0.064978821808 Rises=F Damp=F
 DIIS: error= 7.28D-03 at cycle   4 NSaved=   4.
 NSaved= 4 IEnMin= 4 EnMin= -955.682387403763     IErMin= 4 ErrMin= 7.28D-03
 ErrMax= 7.28D-03  0.00D+00 EMaxC= 1.00D-01 BMatC= 2.36D-02 BMatP= 9.05D-02
 IDIUse=3 WtCom= 9.27D-01 WtEn= 7.28D-02
 Coeff-Com:  0.134D-01 0.107D+00 0.334D+00 0.546D+00
 Coeff-En:   0.000D+00 0.000D+00 0.227D+00 0.773D+00
 Coeff:      0.124D-01 0.989D-01 0.326D+00 0.563D+00
 Gap=     0.169 Goal=   None    Shift=    0.000
 RMSDP=4.77D-04 MaxDP=2.51D-02 DE=-6.50D-02 OVMax= 4.04D-02

 Cycle   5  Pass 0  IDiag  1:
 RMSU=  2.10D-04    CP:  9.69D-01  7.98D-01  6.28D-01  5.80D-01
 E= -955.699798801995     Delta-E=       -0.017411398231 Rises=F Damp=F
 DIIS: error= 1.21D-03 at cycle   5 NSaved=   5.
 NSaved= 5 IEnMin= 5 EnMin= -955.699798801995     IErMin= 5 ErrMin= 1.21D-03
 ErrMax= 1.21D-03  0.00D+00 EMaxC= 1.00D-01 BMatC= 1.82D-03 BMatP= 2.36D-02
 IDIUse=3 WtCom= 9.88D-01 WtEn= 1.21D-02
 Coeff-Com:  0.290D-02 0.134D-01 0.156D+00 0.355D+00 0.473D+00
 Coeff-En:   0.000D+00 0.000D+00 0.000D+00 0.211D-01 0.979D+00
 Coeff:      0.286D-02 0.132D-01 0.154D+00 0.351D+00 0.479D+00
 Gap=     0.169 Goal=   None    Shift=    0.000
 RMSDP=1.46D-04 MaxDP=5.73D-03 DE=-1.74D-02 OVMax= 1.95D-02

 Cycle   6  Pass 0  IDiag  1:
 RMSU=  7.33D-05    CP:  9.69D-01  8.03D-01  6.26D-01  6.41D-01  4.50D-01
 E= -955.701314026855     Delta-E=       -0.001515224861 Rises=F Damp=F
 DIIS: error= 5.08D-04 at cycle   6 NSaved=   6.
 NSaved= 6 IEnMin= 6 EnMin= -955.701314026855     IErMin= 6 ErrMin= 5.08D-04
 ErrMax= 5.08D-04  0.00D+00 EMaxC= 1.00D-01 BMatC= 1.51D-04 BMatP= 1.82D-03
 IDIUse=3 WtCom= 9.95D-01 WtEn= 5.08D-03
 Coeff-Com:  0.826D-03-0.175D-02 0.580D-01 0.147D+00 0.286D+00 0.510D+00
 Coeff-En:   0.000D+00 0.000D+00 0.000D+00 0.000D+00 0.567D-01 0.943D+00
 Coeff:      0.822D-03-0.174D-02 0.577D-01 0.146D+00 0.285D+00 0.512D+00
 Gap=     0.170 Goal=   None    Shift=    0.000
 RMSDP=4.76D-05 MaxDP=2.07D-03 DE=-1.52D-03 OVMax= 7.49D-03

 Cycle   7  Pass 0  IDiag  1:
 RMSU=  2.46D-05    CP:  9.69D-01  8.05D-01  6.27D-01  6.34D-01  5.54D-01
                    CP:  5.44D-01
 E= -955.701448894798     Delta-E=       -0.000134867943 Rises=F Damp=F
 DIIS: error= 1.51D-04 at cycle   7 NSaved=   7.
 NSaved= 7 IEnMin= 7 EnMin= -955.701448894798     IErMin= 7 ErrMin= 1.51D-04
 ErrMax= 1.51D-04  0.00D+00 EMaxC= 1.00D-01 BMatC= 2.20D-05 BMatP= 1.51D-04
 IDIUse=3 WtCom= 9.98D-01 WtEn= 1.51D-03
 Coeff-Com:  0.207D-03-0.270D-02 0.180D-01 0.482D-01 0.126D+00 0.333D+00
 Coeff-Com:  0.477D+00
 Coeff-En:   0.000D+00 0.000D+00 0.000D+00 0.000D+00 0.000D+00 0.105D+00
 Coeff-En:   0.895D+00
 Coeff:      0.207D-03-0.270D-02 0.179D-01 0.481D-01 0.126D+00 0.332D+00
 Coeff:      0.478D+00
 Gap=     0.170 Goal=   None    Shift=    0.000
 RMSDP=1.57D-05 MaxDP=5.84D-04 DE=-1.35D-04 OVMax= 1.72D-03

 Cycle   8  Pass 0  IDiag  1:
 RMSU=  6.64D-06    CP:  9.69D-01  8.04D-01  6.28D-01  6.40D-01  5.39D-01
                    CP:  6.10D-01  5.48D-01
 E= -955.701469399967     Delta-E=       -0.000020505170 Rises=F Damp=F
 DIIS: error= 3.78D-05 at cycle   8 NSaved=   8.
 NSaved= 8 IEnMin= 8 EnMin= -955.701469399967     IErMin= 8 ErrMin= 3.78D-05
 ErrMax= 3.78D-05  0.00D+00 EMaxC= 1.00D-01 BMatC= 8.52D-07 BMatP= 2.20D-05
 IDIUse=1 WtCom= 1.00D+00 WtEn= 0.00D+00
 Coeff-Com:  0.105D-03-0.121D-02 0.420D-02 0.110D-01 0.403D-01 0.125D+00
 Coeff-Com:  0.228D+00 0.593D+00
 Coeff:      0.105D-03-0.121D-02 0.420D-02 0.110D-01 0.403D-01 0.125D+00
 Coeff:      0.228D+00 0.593D+00
 Gap=     0.170 Goal=   None    Shift=    0.000
 RMSDP=3.64D-06 MaxDP=1.25D-04 DE=-2.05D-05 OVMax= 2.02D-04

 Initial convergence to 1.0D-05 achieved.  Increase integral accuracy.
 Cycle   9  Pass 1  IDiag  1:
 E= -955.701501135178     Delta-E=       -0.000031735211 Rises=F Damp=F
 DIIS: error= 5.00D-05 at cycle   1 NSaved=   1.
 NSaved= 1 IEnMin= 1 EnMin= -955.701501135178     IErMin= 1 ErrMin= 5.00D-05
 ErrMax= 5.00D-05  0.00D+00 EMaxC= 1.00D-01 BMatC= 7.30D-07 BMatP= 7.30D-07
 IDIUse=1 WtCom= 1.00D+00 WtEn= 0.00D+00
 Coeff-Com:  0.100D+01
 Coeff:      0.100D+01
 Gap=     0.170 Goal=   None    Shift=    0.000
 RMSDP=3.64D-06 MaxDP=1.25D-04 DE=-3.17D-05 OVMax= 2.21D-04

 Cycle  10  Pass 1  IDiag  1:
 RMSU=  2.81D-05    CP:  1.00D+00
 E= -955.701501555551     Delta-E=       -0.000000420373 Rises=F Damp=F
 DIIS: error= 2.48D-05 at cycle   2 NSaved=   2.
 NSaved= 2 IEnMin= 2 EnMin= -955.701501555551     IErMin= 2 ErrMin= 2.48D-05
 ErrMax= 2.48D-05  0.00D+00 EMaxC= 1.00D-01 BMatC= 3.31D-07 BMatP= 7.30D-07
 IDIUse=1 WtCom= 1.00D+00 WtEn= 0.00D+00
 Coeff-Com:  0.354D+00 0.646D+00
 Coeff:      0.354D+00 0.646D+00
 Gap=     0.170 Goal=   None    Shift=    0.000
 RMSDP=2.97D-06 MaxDP=1.56D-04 DE=-4.20D-07 OVMax= 3.25D-04

 Cycle  11  Pass 1  IDiag  1:
 RMSU=  2.97D-06    CP:  1.00D+00  1.00D+00
 E= -955.701501562144     Delta-E=       -0.000000006593 Rises=F Damp=F
 DIIS: error= 2.72D-05 at cycle   3 NSaved=   3.
 NSaved= 3 IEnMin= 3 EnMin= -955.701501562144     IErMin= 2 ErrMin= 2.48D-05
 ErrMax= 2.72D-05  0.00D+00 EMaxC= 1.00D-01 BMatC= 3.33D-07 BMatP= 3.31D-07
 IDIUse=1 WtCom= 1.00D+00 WtEn= 0.00D+00
 Coeff-Com:  0.668D-02 0.499D+00 0.494D+00
 Coeff:      0.668D-02 0.499D+00 0.494D+00
 Gap=     0.170 Goal=   None    Shift=    0.000
 RMSDP=1.56D-06 MaxDP=8.95D-05 DE=-6.59D-09 OVMax= 1.88D-04

 Cycle  12  Pass 1  IDiag  1:
 RMSU=  5.22D-07    CP:  1.00D+00  1.01D+00  5.13D-01
 E= -955.701501834379     Delta-E=       -0.000000272235 Rises=F Damp=F
 DIIS: error= 3.92D-06 at cycle   4 NSaved=   4.
 NSaved= 4 IEnMin= 4 EnMin= -955.701501834379     IErMin= 4 ErrMin= 3.92D-06
 ErrMax= 3.92D-06  0.00D+00 EMaxC= 1.00D-01 BMatC= 9.89D-09 BMatP= 3.31D-07
 IDIUse=1 WtCom= 1.00D+00 WtEn= 0.00D+00
 Coeff-Com: -0.688D-02 0.283D+00 0.300D+00 0.425D+00
 Coeff:     -0.688D-02 0.283D+00 0.300D+00 0.425D+00
 Gap=     0.170 Goal=   None    Shift=    0.000
 RMSDP=2.67D-07 MaxDP=1.81D-05 DE=-2.72D-07 OVMax= 2.25D-05

 Cycle  13  Pass 1  IDiag  1:
 RMSU=  1.59D-07    CP:  1.00D+00  1.01D+00  5.12D-01  5.89D-01
 E= -955.701501842262     Delta-E=       -0.000000007884 Rises=F Damp=F
 DIIS: error= 1.00D-06 at cycle   5 NSaved=   5.
 NSaved= 5 IEnMin= 5 EnMin= -955.701501842262     IErMin= 5 ErrMin= 1.00D-06
 ErrMax= 1.00D-06  0.00D+00 EMaxC= 1.00D-01 BMatC= 3.84D-10 BMatP= 9.89D-09
 IDIUse=1 WtCom= 1.00D+00 WtEn= 0.00D+00
 Coeff-Com: -0.418D-02 0.138D+00 0.148D+00 0.247D+00 0.471D+00
 Coeff:     -0.418D-02 0.138D+00 0.148D+00 0.247D+00 0.471D+00
 Gap=     0.170 Goal=   None    Shift=    0.000
 RMSDP=7.78D-08 MaxDP=2.43D-06 DE=-7.88D-09 OVMax= 7.52D-06

 Cycle  14  Pass 1  IDiag  1:
 RMSU=  6.19D-08    CP:  1.00D+00  1.01D+00  5.18D-01  5.83D-01  7.24D-01
 E= -955.701501842580     Delta-E=       -0.000000000317 Rises=F Damp=F
 DIIS: error= 2.61D-07 at cycle   6 NSaved=   6.
 NSaved= 6 IEnMin= 6 EnMin= -955.701501842580     IErMin= 6 ErrMin= 2.61D-07
 ErrMax= 2.61D-07  0.00D+00 EMaxC= 1.00D-01 BMatC= 3.43D-11 BMatP= 3.84D-10
 IDIUse=1 WtCom= 1.00D+00 WtEn= 0.00D+00
 Coeff-Com: -0.120D-02 0.306D-01 0.333D-01 0.694D-01 0.255D+00 0.612D+00
 Coeff:     -0.120D-02 0.306D-01 0.333D-01 0.694D-01 0.255D+00 0.612D+00
 Gap=     0.170 Goal=   None    Shift=    0.000
 RMSDP=2.41D-08 MaxDP=7.90D-07 DE=-3.17D-10 OVMax= 2.61D-06

 Cycle  15  Pass 1  IDiag  1:
 RMSU=  1.69D-08    CP:  1.00D+00  1.01D+00  5.16D-01  5.91D-01  7.83D-01
                    CP:  7.98D-01
 E= -955.701501842658     Delta-E=       -0.000000000078 Rises=F Damp=F
 DIIS: error= 1.43D-07 at cycle   7 NSaved=   7.
 NSaved= 7 IEnMin= 7 EnMin= -955.701501842658     IErMin= 7 ErrMin= 1.43D-07
 ErrMax= 1.43D-07  0.00D+00 EMaxC= 1.00D-01 BMatC= 8.01D-12 BMatP= 3.43D-11
 IDIUse=1 WtCom= 1.00D+00 WtEn= 0.00D+00
 Coeff-Com: -0.268D-03 0.325D-02 0.377D-02 0.156D-01 0.106D+00 0.391D+00
 Coeff-Com:  0.480D+00
 Coeff:     -0.268D-03 0.325D-02 0.377D-02 0.156D-01 0.106D+00 0.391D+00
 Coeff:      0.480D+00
 Gap=     0.170 Goal=   None    Shift=    0.000
 RMSDP=1.03D-08 MaxDP=4.36D-07 DE=-7.82D-11 OVMax= 1.17D-06

 Cycle  16  Pass 1  IDiag  1:
 RMSU=  7.04D-09    CP:  1.00D+00  1.01D+00  5.17D-01  5.94D-01  7.80D-01
                    CP:  8.49D-01  6.30D-01
 E= -955.701501842615     Delta-E=        0.000000000043 Rises=F Damp=F
 DIIS: error= 5.17D-08 at cycle   8 NSaved=   8.
 NSaved= 8 IEnMin= 7 EnMin= -955.701501842658     IErMin= 8 ErrMin= 5.17D-08
 ErrMax= 5.17D-08  0.00D+00 EMaxC= 1.00D-01 BMatC= 9.22D-13 BMatP= 8.01D-12
 IDIUse=1 WtCom= 1.00D+00 WtEn= 0.00D+00
 Coeff-Com:  0.211D-04-0.287D-02-0.298D-02-0.111D-02 0.254D-01 0.149D+00
 Coeff-Com:  0.296D+00 0.537D+00
 Coeff:      0.211D-04-0.287D-02-0.298D-02-0.111D-02 0.254D-01 0.149D+00
 Coeff:      0.296D+00 0.537D+00
 Gap=     0.170 Goal=   None    Shift=    0.000
 RMSDP=3.64D-09 MaxDP=1.87D-07 DE= 4.32D-11 OVMax= 3.31D-07

 SCF Done:  E(RB3LYP) =  -955.701501843     A.U. after   16 cycles
            NFock= 16  Conv=0.36D-08     -V/T= 2.0096
 KE= 9.465890035073D+02 PE=-5.571779713539D+03 EE= 1.995586659324D+03
 Leave Link  502 at Mon Dec 18 20:36:28 2023, MaxMem=   805306368 cpu:       385.6
 (Enter /truba/home/eraksoy/apps/g09/l601.exe)
 Copying SCF densities to generalized density rwf, IOpCl= 0 IROHF=0.

 **********************************************************************

            Population analysis using the SCF density.

 **********************************************************************

 Orbital symmetries:
       Occupied  (A) (A) (A) (A) (A) (A) (A) (A) (A) (A) (A) (A)
                 (A) (A) (A) (A) (A) (A) (A) (A) (A) (A) (A) (A)
                 (A) (A) (A) (A) (A) (A) (A) (A) (A) (A) (A) (A)
                 (A) (A) (A) (A) (A) (A) (A) (A) (A) (A) (A) (A)
                 (A) (A) (A) (A) (A) (A) (A) (A) (A) (A) (A) (A)
                 (A) (A) (A) (A) (A) (A) (A) (A) (A) (A) (A) (A)
                 (A) (A) (A) (A)
       Virtual   (A) (A) (A) (A) (A) (A) (A) (A) (A) (A) (A) (A)
                 (A) (A) (A) (A) (A) (A) (A) (A) (A) (A) (A) (A)
                 (A) (A) (A) (A) (A) (A) (A) (A) (A) (A) (A) (A)
                 (A) (A) (A) (A) (A) (A) (A) (A) (A) (A) (A) (A)
                 (A) (A) (A) (A) (A) (A) (A) (A) (A) (A) (A) (A)
                 (A) (A) (A) (A) (A) (A) (A) (A) (A) (A) (A) (A)
                 (A) (A) (A) (A) (A) (A) (A) (A) (A) (A) (A) (A)
                 (A) (A) (A) (A) (A) (A) (A) (A) (A) (A) (A) (A)
                 (A) (A) (A) (A) (A) (A) (A) (A) (A) (A) (A) (A)
                 (A) (A) (A) (A) (A) (A) (A) (A) (A) (A) (A) (A)
                 (A) (A) (A) (A) (A) (A) (A) (A) (A) (A) (A) (A)
                 (A) (A) (A) (A) (A) (A) (A) (A) (A) (A) (A) (A)
                 (A) (A) (A) (A) (A) (A) (A) (A) (A) (A) (A) (A)
                 (A) (A) (A) (A) (A) (A) (A) (A) (A) (A) (A) (A)
                 (A) (A) (A) (A) (A) (A) (A) (A) (A) (A) (A) (A)
                 (A) (A) (A) (A) (A) (A) (A) (A) (A) (A) (A) (A)
                 (A) (A) (A) (A) (A) (A) (A) (A) (A) (A) (A) (A)
                 (A) (A) (A) (A) (A) (A) (A) (A) (A) (A) (A) (A)
                 (A) (A) (A) (A) (A) (A) (A) (A) (A) (A) (A) (A)
                 (A) (A) (A) (A) (A) (A) (A) (A) (A) (A) (A) (A)
                 (A) (A) (A) (A) (A) (A) (A) (A) (A) (A) (A) (A)
                 (A) (A) (A) (A) (A) (A) (A) (A) (A) (A) (A) (A)
                 (A) (A) (A) (A) (A) (A) (A) (A) (A) (A) (A)
 The electronic state is 1-A.
 Alpha  occ. eigenvalues --  -19.18872 -19.13661 -19.11272 -14.37770 -14.35365
 Alpha  occ. eigenvalues --  -10.31728 -10.28840 -10.24768 -10.23811 -10.22314
 Alpha  occ. eigenvalues --  -10.21981 -10.20594 -10.19743 -10.19325 -10.19146
 Alpha  occ. eigenvalues --  -10.19118 -10.19116 -10.19007 -10.18731 -10.18697
 Alpha  occ. eigenvalues --  -10.18453  -1.10078  -1.02875  -1.01013  -0.96709
 Alpha  occ. eigenvalues --   -0.91281  -0.84284  -0.81596  -0.80144  -0.76278
 Alpha  occ. eigenvalues --   -0.73931  -0.73272  -0.71318  -0.69420  -0.65685
 Alpha  occ. eigenvalues --   -0.62443  -0.61605  -0.59718  -0.57586  -0.55641
 Alpha  occ. eigenvalues --   -0.54779  -0.53254  -0.52475  -0.48884  -0.48313
 Alpha  occ. eigenvalues --   -0.48056  -0.47528  -0.46522  -0.45709  -0.44310
 Alpha  occ. eigenvalues --   -0.43935  -0.43489  -0.43375  -0.42610  -0.41837
 Alpha  occ. eigenvalues --   -0.41296  -0.40717  -0.39399  -0.39027  -0.38815
 Alpha  occ. eigenvalues --   -0.38316  -0.37461  -0.36432  -0.35781  -0.35267
 Alpha  occ. eigenvalues --   -0.34841  -0.33793  -0.33286  -0.29808  -0.28595
 Alpha  occ. eigenvalues --   -0.27428  -0.26438  -0.25351  -0.24157  -0.22534
 Alpha  occ. eigenvalues --   -0.20090
 Alpha virt. eigenvalues --   -0.03128  -0.01557   0.00284   0.01920   0.05640
 Alpha virt. eigenvalues --    0.07610   0.07708   0.08721   0.10164   0.11081
 Alpha virt. eigenvalues --    0.11595   0.12216   0.12805   0.13433   0.14409
 Alpha virt. eigenvalues --    0.14909   0.15343   0.16203   0.16635   0.17370
 Alpha virt. eigenvalues --    0.17452   0.17834   0.18111   0.18928   0.19161
 Alpha virt. eigenvalues --    0.20288   0.20420   0.23014   0.23487   0.25093
 Alpha virt. eigenvalues --    0.25542   0.26049   0.27909   0.29020   0.29462
 Alpha virt. eigenvalues --    0.31569   0.32689   0.33949   0.35450   0.35781
 Alpha virt. eigenvalues --    0.36813   0.38223   0.38438   0.39648   0.43353
 Alpha virt. eigenvalues --    0.48046   0.50223   0.50549   0.51867   0.52095
 Alpha virt. eigenvalues --    0.52419   0.53154   0.53552   0.54430   0.55215
 Alpha virt. eigenvalues --    0.55665   0.56668   0.57043   0.57370   0.58091
 Alpha virt. eigenvalues --    0.59118   0.59272   0.60599   0.60898   0.61079
 Alpha virt. eigenvalues --    0.61644   0.62114   0.62787   0.63072   0.63700
 Alpha virt. eigenvalues --    0.64926   0.65878   0.66255   0.68259   0.68581
 Alpha virt. eigenvalues --    0.68815   0.69558   0.70744   0.72290   0.73496
 Alpha virt. eigenvalues --    0.74398   0.75692   0.77029   0.78011   0.79521
 Alpha virt. eigenvalues --    0.79634   0.80365   0.80700   0.81952   0.82591
 Alpha virt. eigenvalues --    0.83223   0.83611   0.84538   0.84743   0.86172
 Alpha virt. eigenvalues --    0.86575   0.87015   0.87682   0.88581   0.89402
 Alpha virt. eigenvalues --    0.89621   0.90203   0.91134   0.91397   0.92365
 Alpha virt. eigenvalues --    0.93221   0.94145   0.95300   0.96374   0.97202
 Alpha virt. eigenvalues --    0.97849   0.98103   0.99757   1.00310   1.02365
 Alpha virt. eigenvalues --    1.04617   1.05251   1.05937   1.07381   1.08666
 Alpha virt. eigenvalues --    1.10476   1.11348   1.11499   1.12267   1.13757
 Alpha virt. eigenvalues --    1.15508   1.16579   1.17863   1.19494   1.20204
 Alpha virt. eigenvalues --    1.22333   1.24167   1.24756   1.26040   1.27770
 Alpha virt. eigenvalues --    1.29701   1.31153   1.33037   1.34243   1.36948
 Alpha virt. eigenvalues --    1.38520   1.39552   1.39882   1.40450   1.42255
 Alpha virt. eigenvalues --    1.44571   1.46174   1.46689   1.48234   1.49121
 Alpha virt. eigenvalues --    1.50918   1.52277   1.54005   1.55261   1.57245
 Alpha virt. eigenvalues --    1.58220   1.62059   1.63482   1.64924   1.65665
 Alpha virt. eigenvalues --    1.67254   1.69039   1.71284   1.72305   1.73261
 Alpha virt. eigenvalues --    1.76927   1.78992   1.79592   1.80295   1.81666
 Alpha virt. eigenvalues --    1.82305   1.83459   1.85545   1.85831   1.87225
 Alpha virt. eigenvalues --    1.88215   1.89632   1.90311   1.91823   1.93087
 Alpha virt. eigenvalues --    1.94210   1.94830   1.96085   1.98502   1.99292
 Alpha virt. eigenvalues --    2.00469   2.01908   2.02379   2.04251   2.04696
 Alpha virt. eigenvalues --    2.05434   2.06371   2.07830   2.09156   2.09323
 Alpha virt. eigenvalues --    2.09717   2.11423   2.13525   2.15028   2.15968
 Alpha virt. eigenvalues --    2.16878   2.19512   2.20497   2.21129   2.23846
 Alpha virt. eigenvalues --    2.24756   2.25430   2.26815   2.28360   2.29285
 Alpha virt. eigenvalues --    2.30562   2.31311   2.33239   2.33792   2.37283
 Alpha virt. eigenvalues --    2.38410   2.39798   2.40526   2.42161   2.45039
 Alpha virt. eigenvalues --    2.45811   2.48463   2.49617   2.50234   2.53662
 Alpha virt. eigenvalues --    2.54020   2.56067   2.57851   2.60887   2.62686
 Alpha virt. eigenvalues --    2.64485   2.67927   2.68504   2.69451   2.70345
 Alpha virt. eigenvalues --    2.73392   2.74392   2.76220   2.77091   2.80726
 Alpha virt. eigenvalues --    2.83287   2.83516   2.86849   2.92598   2.93655
 Alpha virt. eigenvalues --    2.97584   3.00246   3.03392   3.07976   3.10226
 Alpha virt. eigenvalues --    3.15092   3.16189   3.26515   3.44294   3.94676
 Alpha virt. eigenvalues --    4.00098   4.06155   4.06479   4.09640   4.11590
 Alpha virt. eigenvalues --    4.14394   4.16594   4.18073   4.19249   4.25096
 Alpha virt. eigenvalues --    4.25870   4.29741   4.34899   4.36753   4.39890
 Alpha virt. eigenvalues --    4.42859   4.55038   4.60634   4.67598   4.80687
          Condensed to atoms (all electrons):
               1          2          3          4          5          6
     1  N    7.251896   0.235323  -0.040974  -0.041203   0.001812  -0.062326
     2  C    0.235323   5.110659   0.357956   0.318707  -0.064322   0.327641
     3  H   -0.040974   0.357956   0.500846  -0.031240  -0.000656  -0.025947
     4  C   -0.041203   0.318707  -0.031240   4.400667   0.545536  -0.046964
     5  O    0.001812  -0.064322  -0.000656   0.545536   8.060896   0.002551
     6  C   -0.062326   0.327641  -0.025947  -0.046964   0.002551   5.229480
     7  H    0.004990  -0.032150  -0.001688  -0.003746   0.006707   0.353767
     8  H   -0.001593  -0.030254  -0.003894   0.005599   0.000140   0.359308
     9  C   -0.000259  -0.017316   0.002986  -0.002655  -0.000412   0.344327
    10  C   -0.000007   0.004033  -0.000130   0.000130  -0.000096  -0.084735
    11  H   -0.000002   0.000054   0.000000  -0.000005  -0.000002  -0.002227
    12  C   -0.001901  -0.003195   0.000085   0.000233   0.000052  -0.058337
    13  N    0.000004  -0.000090   0.000001  -0.000008   0.000001   0.004767
    14  H    0.000000   0.000002   0.000000   0.000000   0.000000  -0.000079
    15  C   -0.000075  -0.000237   0.000002  -0.000031  -0.000001   0.009968
    16  C   -0.006748   0.003787  -0.000051   0.002542  -0.000127  -0.013292
    17  H   -0.001215  -0.002538   0.000103  -0.002621  -0.000719   0.001486
    18  C    0.000000   0.000002   0.000000   0.000002   0.000000  -0.000242
    19  H    0.000000   0.000000   0.000000   0.000000   0.000000   0.000002
    20  C    0.000174   0.000025   0.000000   0.000058  -0.000001  -0.000042
    21  H    0.000000   0.000002   0.000000   0.000001   0.000000   0.000000
    22  C   -0.000001   0.000000   0.000000  -0.000004   0.000000   0.000007
    23  H    0.000000   0.000000   0.000000   0.000000   0.000000   0.000000
    24  O    0.000235  -0.082762   0.000634   0.245471  -0.096258   0.002053
    25  H    0.260787  -0.033230   0.004503  -0.003069   0.000098  -0.000720
    26  C   -0.000196   0.006605  -0.000152  -0.021076   0.006934  -0.000181
    27  H   -0.000010   0.000004   0.000004   0.005136   0.000751   0.000000
    28  H   -0.000010  -0.000131   0.000027  -0.005502   0.006379  -0.000013
    29  H   -0.000025  -0.000117  -0.000011  -0.004071   0.004889   0.000047
    30  C    0.237594  -0.012893  -0.001725  -0.000695   0.000019   0.001404
    31  C   -0.100317   0.004967   0.000885  -0.000041   0.000000  -0.000120
    32  C    0.006771  -0.000176  -0.000024   0.000012   0.000000   0.000002
    33  C   -0.003665  -0.000080  -0.000036  -0.000008   0.000000  -0.000005
    34  O   -0.112269   0.000181   0.021591  -0.000025  -0.000003   0.000067
    35  H   -0.000087   0.000001   0.000000   0.000000   0.000000   0.000000
    36  H    0.000387  -0.000009  -0.000009   0.000000   0.000000   0.000000
    37  H    0.000096   0.000003   0.000001   0.000000   0.000000   0.000000
    38  H   -0.000424   0.000123   0.000000  -0.000020   0.000000   0.000020
    39  H    0.002431  -0.000053  -0.000005   0.000005   0.000000  -0.000010
               7          8          9         10         11         12
     1  N    0.004990  -0.001593  -0.000259  -0.000007  -0.000002  -0.001901
     2  C   -0.032150  -0.030254  -0.017316   0.004033   0.000054  -0.003195
     3  H   -0.001688  -0.003894   0.002986  -0.000130   0.000000   0.000085
     4  C   -0.003746   0.005599  -0.002655   0.000130  -0.000005   0.000233
     5  O    0.006707   0.000140  -0.000412  -0.000096  -0.000002   0.000052
     6  C    0.353767   0.359308   0.344327  -0.084735  -0.002227  -0.058337
     7  H    0.572837  -0.032456  -0.035742  -0.007757   0.001879   0.001290
     8  H   -0.032456   0.580461  -0.038167  -0.007118   0.001567   0.000668
     9  C   -0.035742  -0.038167   4.932301   0.500785  -0.036367   0.409585
    10  C   -0.007757  -0.007118   0.500785   5.041202   0.366312   0.021410
    11  H    0.001879   0.001567  -0.036367   0.366312   0.555803   0.002897
    12  C    0.001290   0.000668   0.409585   0.021410   0.002897   4.788025
    13  N    0.000271  -0.000047  -0.056516   0.311355  -0.044229  -0.053467
    14  H    0.000011  -0.000013   0.003887  -0.031226  -0.001609   0.006620
    15  C   -0.000176   0.000091   0.008317  -0.125245   0.004739   0.455327
    16  C    0.000145   0.000008  -0.113386   0.014662  -0.000145   0.468372
    17  H   -0.000090  -0.000097  -0.006640  -0.000061  -0.000002  -0.053439
    18  C    0.000003   0.000006   0.011330   0.004864  -0.000088  -0.043319
    19  H    0.000000   0.000000  -0.000221  -0.000003   0.000001   0.004165
    20  C    0.000006   0.000004   0.008237  -0.000368   0.000004   0.000574
    21  H    0.000000   0.000000  -0.000186   0.000004   0.000000   0.002447
    22  C    0.000000   0.000000   0.000018  -0.000023   0.000001  -0.037481
    23  H    0.000000   0.000000   0.000011   0.000002   0.000000   0.000976
    24  O    0.000179  -0.000040   0.000096  -0.000001   0.000000  -0.000487
    25  H   -0.000172   0.000038   0.001516  -0.000083   0.000000  -0.000419
    26  C   -0.000012   0.000002   0.000007   0.000000   0.000000   0.000024
    27  H    0.000000   0.000000   0.000001   0.000000   0.000000  -0.000001
    28  H    0.000001   0.000000   0.000000   0.000000   0.000000  -0.000002
    29  H   -0.000001   0.000000  -0.000015   0.000000   0.000000   0.000071
    30  C   -0.000014   0.000303  -0.000058   0.000001   0.000000   0.000012
    31  C    0.000003  -0.000010  -0.000008   0.000000   0.000000   0.000006
    32  C    0.000000   0.000000   0.000000   0.000000   0.000000   0.000000
    33  C    0.000000  -0.000001   0.000001   0.000000   0.000000   0.000030
    34  O    0.000000   0.000080  -0.000004   0.000000   0.000000  -0.000001
    35  H    0.000000   0.000000   0.000000   0.000000   0.000000   0.000000
    36  H    0.000000   0.000000   0.000000   0.000000   0.000000   0.000000
    37  H    0.000000   0.000000   0.000000   0.000000   0.000000   0.000000
    38  H    0.000000   0.000001  -0.000027   0.000000   0.000000   0.000051
    39  H    0.000000   0.000007   0.000008   0.000000   0.000000   0.000020
              13         14         15         16         17         18
     1  N    0.000004   0.000000  -0.000075  -0.006748  -0.001215   0.000000
     2  C   -0.000090   0.000002  -0.000237   0.003787  -0.002538   0.000002
     3  H    0.000001   0.000000   0.000002  -0.000051   0.000103   0.000000
     4  C   -0.000008   0.000000  -0.000031   0.002542  -0.002621   0.000002
     5  O    0.000001   0.000000  -0.000001  -0.000127  -0.000719   0.000000
     6  C    0.004767  -0.000079   0.009968  -0.013292   0.001486  -0.000242
     7  H    0.000271   0.000011  -0.000176   0.000145  -0.000090   0.000003
     8  H   -0.000047  -0.000013   0.000091   0.000008  -0.000097   0.000006
     9  C   -0.056516   0.003887   0.008317  -0.113386  -0.006640   0.011330
    10  C    0.311355  -0.031226  -0.125245   0.014662  -0.000061   0.004864
    11  H   -0.044229  -0.001609   0.004739  -0.000145  -0.000002  -0.000088
    12  C   -0.053467   0.006620   0.455327   0.468372  -0.053439  -0.043319
    13  N    6.984288   0.320346   0.279485   0.011297  -0.000103  -0.084549
    14  H    0.320346   0.402786  -0.026709  -0.000109   0.000004  -0.004386
    15  C    0.279485  -0.026709   4.773381  -0.059874   0.004498   0.480538
    16  C    0.011297  -0.000109  -0.059874   5.206176   0.320624  -0.060891
    17  H   -0.000103   0.000004   0.004498   0.320624   0.619656   0.000405
    18  C   -0.084549  -0.004386   0.480538  -0.060891   0.000405   5.034452
    19  H   -0.005551   0.002474  -0.038989   0.000523   0.000018   0.348467
    20  C   -0.000118  -0.000001  -0.044722   0.513655  -0.037351  -0.026960
    21  H    0.000003   0.000000   0.001052  -0.038463  -0.005671   0.004737
    22  C    0.004909  -0.000105  -0.003647  -0.024355   0.004636   0.534809
    23  H   -0.000103  -0.000001   0.002793   0.004889  -0.000180  -0.040409
    24  O    0.000000   0.000000  -0.000002  -0.006958   0.019426   0.000000
    25  H   -0.000001   0.000000   0.000010   0.012017   0.013260  -0.000005
    26  C    0.000000   0.000000   0.000000   0.000347  -0.001068   0.000000
    27  H    0.000000   0.000000   0.000000   0.000032  -0.000150   0.000000
    28  H    0.000000   0.000000   0.000000  -0.000033   0.000156   0.000000
    29  H    0.000000   0.000000   0.000001   0.000731  -0.000562   0.000000
    30  C    0.000000   0.000000   0.000000   0.000019   0.000495   0.000000
    31  C    0.000000   0.000000   0.000000  -0.000015   0.000017   0.000000
    32  C    0.000000   0.000000   0.000000   0.000001  -0.000008   0.000000
    33  C    0.000000   0.000000   0.000000  -0.000459  -0.000419   0.000000
    34  O    0.000000   0.000000   0.000000   0.000000  -0.000008   0.000000
    35  H    0.000000   0.000000   0.000000   0.000000   0.000000   0.000000
    36  H    0.000000   0.000000   0.000000   0.000000   0.000000   0.000000
    37  H    0.000000   0.000000   0.000000   0.000002  -0.000001   0.000000
    38  H    0.000000   0.000000   0.000000   0.001057   0.000234  -0.000001
    39  H    0.000000   0.000000   0.000000   0.000057  -0.000067   0.000000
              19         20         21         22         23         24
     1  N    0.000000   0.000174   0.000000  -0.000001   0.000000   0.000235
     2  C    0.000000   0.000025   0.000002   0.000000   0.000000  -0.082762
     3  H    0.000000   0.000000   0.000000   0.000000   0.000000   0.000634
     4  C    0.000000   0.000058   0.000001  -0.000004   0.000000   0.245471
     5  O    0.000000  -0.000001   0.000000   0.000000   0.000000  -0.096258
     6  C    0.000002  -0.000042   0.000000   0.000007   0.000000   0.002053
     7  H    0.000000   0.000006   0.000000   0.000000   0.000000   0.000179
     8  H    0.000000   0.000004   0.000000   0.000000   0.000000  -0.000040
     9  C   -0.000221   0.008237  -0.000186   0.000018   0.000011   0.000096
    10  C   -0.000003  -0.000368   0.000004  -0.000023   0.000002  -0.000001
    11  H    0.000001   0.000004   0.000000   0.000001   0.000000   0.000000
    12  C    0.004165   0.000574   0.002447  -0.037481   0.000976  -0.000487
    13  N   -0.005551  -0.000118   0.000003   0.004909  -0.000103   0.000000
    14  H    0.002474  -0.000001   0.000000  -0.000105  -0.000001   0.000000
    15  C   -0.038989  -0.044722   0.001052  -0.003647   0.002793  -0.000002
    16  C    0.000523   0.513655  -0.038463  -0.024355   0.004889  -0.006958
    17  H    0.000018  -0.037351  -0.005671   0.004636  -0.000180   0.019426
    18  C    0.348467  -0.026960   0.004737   0.534809  -0.040409   0.000000
    19  H    0.603880   0.004405  -0.000178  -0.040149  -0.005515   0.000000
    20  C    0.004405   4.890310   0.355916   0.524988  -0.039057   0.000076
    21  H   -0.000178   0.355916   0.604173  -0.039694  -0.005490  -0.000012
    22  C   -0.040149   0.524988  -0.039694   4.869931   0.356367   0.000000
    23  H   -0.005515  -0.039057  -0.005490   0.356367   0.600003   0.000000
    24  O    0.000000   0.000076  -0.000012   0.000000   0.000000   8.263419
[...]
 06629,-0.00014343,0.00034276,0.00014815,0.00004148,0.00000787,-0.00001
 383,0.00023804,-0.00006421,-0.00007146,-0.00015095,-0.00006431,0.00001
 613,0.00000191,-0.00003172,0.00003039,-0.00000684,-0.00000899,-0.00002
 493,-0.00000709,0.00002699,0.00003190,0.00002862,-0.00001773,0.0000077
 8,0.00000491,-0.00004694,0.00004197,-0.00000462,-0.00001145,0.00001756
 ,0.00002629,0.00001099,0.00000366,-0.00004025,0.00003757,-0.00004850,-
 0.00000964,-0.00001059,-0.00000094,-0.00000609,0.00001858,-0.00002044,
 0.00000352,-0.00000143,-0.00000410,0.00000501,0.00000642,0.00000521,0.
 00000703,-0.00000201,0.00000641,-0.00000100,0.00000439,-0.00000458,-0.
 00000049,0.00000392,-0.00000456,-0.00000374,-0.00000153,0.00000037,-0.
 00000890,-0.00000421,-0.00000149,-0.00000452,0.00000071,-0.00000318,-0
 .00015329,0.00004471,0.00002391,-0.00000724,-0.00001948,-0.00007208,0.
 00008040,-0.00001263,-0.00000699,-0.00000876,0.00000725,0.00000058,-0.
 00001164,-0.00000570,0.00000082,-0.00001305,-0.00000335,0.00000053,0.0
 0072549,0.00034365,-0.00143002,0.00135909,-0.00338704,-0.00099262,-0.0
 7545347,-0.30834373,-0.05798864,0.00095580,0.00051357,0.00139572,-0.00
 134191,0.00013024,-0.00022484,0.08266584,0.32316491,-0.00005087,-0.000
 58264,-0.00068058,0.00019101,0.00018056,-0.00078793,0.00001499,0.00005
 941,0.00001487,0.00003284,0.00007397,-0.00003968,0.00001308,0.00000107
 ,0.00000858,-0.00010732,-0.00019475,-0.00000479,0.00001533,-0.00001664
 ,-0.00006335,-0.00000712,0.00000028,0.00000845,0.00002939,-0.00002270,
 0.00002032,-0.00002073,-0.00002986,0.00002597,0.00000042,-0.00001202,-
 0.00000512,0.00000994,0.00001815,-0.00000983,-0.00000630,0.00004148,-0
 .00003385,-0.00001324,-0.00000993,-0.00000634,-0.00000746,-0.00000499,
 0.00000135,-0.00000044,-0.00000460,0.00000046,0.00000233,0.00000330,0.
 00000116,0.00000003,0.00000161,-0.00000159,-0.00000133,0.00000117,-0.0
 0000193,0.00000340,-0.00000029,0.00000149,0.00000071,0.00000081,0.0000
 0044,0.00000162,0.00000119,-0.00000058,-0.00000014,0.00000033,-0.00000
 019,-0.00003037,0.00000418,-0.00000395,-0.00009053,-0.00006793,0.00036
 673,0.00001415,-0.00000586,0.00000318,-0.00000267,0.00000089,0.0000014
 1,-0.00000232,0.00000096,0.00000029,-0.00000437,-0.00000010,-0.0000002
 5,-0.00440984,-0.00073368,0.01094081,-0.00284854,-0.00938231,0.0045456
 1,-0.02233050,-0.05672241,-0.04964799,0.00247076,0.00059910,-0.0070313
 9,0.00048528,0.00020999,-0.00083344,0.02628606,0.06373324,0.03926390,0
 .00130585,-0.00014937,0.00022226,0.00004697,-0.00020167,-0.00011853,-0
 .00007126,-0.00004928,0.00000874,-0.00023964,0.00006434,0.00005385,0.0
 0012567,0.00002739,-0.00000487,-0.00001244,0.00003412,-0.00003588,0.00
 001251,0.00000631,0.00002727,0.00001254,-0.00003430,-0.00005736,-0.000
 02457,0.00002644,-0.00001928,-0.00001278,0.00004153,-0.00006083,-0.000
 00703,0.00001667,-0.00001063,-0.00002561,-0.00001801,0.00000400,0.0000
 5007,-0.00006549,0.00005133,0.00000488,0.00001646,0.00001342,0.0000101
 8,-0.00000956,0.00002074,0.00000063,0.00000424,0.00000195,-0.00000528,
 -0.00000601,-0.00000407,-0.00000261,-0.00000204,-0.00000373,0.00000112
 ,-0.00000305,0.00000588,-0.00000046,-0.00000198,0.00000094,0.00000217,
 0.00000084,-0.00000004,0.00000708,0.00000109,0.00000157,0.00000299,-0.
 00000030,0.00000278,0.00017046,-0.00008289,-0.00002259,0.00014831,0.00
 024161,0.00011683,-0.00006503,0.00002293,0.00000226,0.00001502,-0.0000
 0713,-0.00000352,0.00001109,0.00000117,0.00000002,0.00001296,0.0000023
 0,-0.00000051,-0.00365998,0.00335410,0.00150720,-0.01721442,0.02387863
 ,-0.00284049,-0.18517603,0.14098491,-0.02125322,-0.00197351,-0.0025276
 6,-0.00439150,0.00300628,-0.00059481,0.00085980,0.00921643,-0.00820540
 ,0.00065213,0.19560260,0.00149615,0.00005105,0.00040718,0.00003668,-0.
 00024251,-0.00010108,-0.00008405,-0.00001502,0.00000595,-0.00017908,0.
 00002399,0.00002999,0.00010578,0.00004208,-0.00000291,-0.00001971,0.00
 003666,-0.00001237,0.00000674,0.00000514,0.00002182,0.00001147,-0.0000
 1648,-0.00003971,-0.00002729,0.00002214,-0.00001415,0.00001317,0.00004
 836,-0.00003966,0.00000341,0.00001170,-0.00000051,-0.00002341,-0.00001
 794,0.00000345,0.00002927,-0.00004998,0.00004737,0.00001014,0.00000828
 ,0.00000496,0.00000271,-0.00000805,0.00001021,0.00000015,0.00000496,0.
 00000205,-0.00000408,-0.00000564,-0.00000392,-0.00000179,-0.00000092,-
 0.00000053,0.00000115,-0.00000289,0.00000330,-0.00000265,-0.00000097,0
 .00000034,0.00000181,0.00000054,-0.00000056,0.00000262,0.00000024,0.00
 000148,0.00000254,-0.00000078,0.00000198,0.00013278,-0.00003196,-0.000
 01688,0.00017636,0.00008972,0.00008297,-0.00005985,0.00001303,0.000002
 57,0.00000788,-0.00000534,-0.00000117,0.00001004,0.00000382,-0.0000004
 9,0.00001099,0.00000262,-0.00000051,-0.00207605,-0.00005958,0.00040919
 ,-0.00329677,0.00998907,-0.00020060,0.14727776,-0.21693458,0.01586165,
 -0.00120870,-0.00045042,-0.00209822,-0.00085967,-0.00221433,-0.0004778
 4,0.01672304,-0.01331071,0.00244922,-0.15772174,0.22198667,0.00050655,
 -0.00012625,0.00039190,-0.00012401,-0.00008610,0.00037487,-0.00002454,
 -0.00003400,0.00000744,-0.00011203,-0.00001012,0.00005450,0.00001967,-
 0.00001150,-0.00003015,0.00001846,0.00008294,0.00002757,-0.00000271,0.
 00001172,0.00002367,0.00000596,-0.00001998,-0.00001841,0.00000790,0.00
 000647,-0.00000354,-0.00002890,-0.00001445,-0.00000139,-0.00000594,0.0
 0000451,-0.00001439,-0.00000669,0.00001307,-0.00001870,0.00002497,0.00
 002865,-0.00000605,-0.00000833,-0.00000096,-0.00000768,-0.00000543,-0.
 00002414,0.00001954,-0.00000625,-0.00001214,0.00000132,-0.00000282,0.0
 0000308,0.00000114,-0.00000812,0.00000465,-0.00000965,-0.00000091,-0.0
 0000157,0.00000180,0.00000986,-0.00000508,0.00000594,0.00000440,0.0000
 0293,0.00000147,0.00001221,0.00000616,0.00000034,0.00000338,0.00000045
 ,0.00000240,0.00007187,-0.00004947,-0.00003842,0.00009035,0.00006808,0
 .00000385,-0.00001977,0.00001125,0.00001470,0.00000870,-0.00000466,0.0
 0000334,0.00000648,0.00000474,-0.00000176,0.00000204,-0.00000294,-0.00
 000180,0.00066348,0.00202512,-0.00706178,-0.00651911,0.00715545,0.0042
 0527,-0.02055891,0.01431626,-0.04153979,-0.00422800,-0.00252296,0.0114
 0615,0.00098692,-0.00043834,-0.00026172,0.00409466,-0.00447898,0.00326
 760,0.02523126,-0.01646696,0.03015589,0.00034836,-0.00034164,-0.000241
 71,0.00036829,0.00003924,0.00014291,-0.00007834,-0.00009823,-0.0000348
 8,-0.00006471,0.00024353,0.00003016,-0.00002764,-0.00012107,-0.0000044
 4,-0.00002713,-0.00002590,0.00000806,0.00000382,-0.00000376,-0.0000135
 6,0.00000672,-0.00000147,-0.00002550,0.00002368,0.00001086,-0.00002888
 ,-0.00000720,-0.00004603,-0.00000175,-0.00001730,0.00001153,0.00001333
 ,0.00000978,-0.00000735,0.00001294,-0.00000404,-0.00001250,-0.00001485
 ,-0.00000323,-0.00000476,0.00001211,-0.00000005,0.00001837,-0.00000705
 ,0.00001131,0.00000287,-0.00000659,0.00000079,0.00000623,0.00000572,0.
 00001162,-0.00000567,0.00001081,0.00000032,0.00000398,-0.00000402,-0.0
 0000152,0.00000536,-0.00000940,-0.00000334,-0.00000118,0.00000083,-0.0
 0001011,-0.00000795,0.00000118,-0.00000463,0.00000012,-0.00000294,-0.0
 0001127,-0.00014524,-0.00004466,0.00033537,0.00053292,0.00057776,0.000
 11014,0.00000143,-0.00000579,0.00001514,0.00000116,0.00000054,-0.00001
 058,-0.00000699,0.00000362,-0.00001380,-0.00000712,-0.00000372,-0.0050
 3359,0.00089763,-0.00153625,0.00926662,0.02341250,0.00591289,0.0010032
 8,0.00126993,0.00056875,-0.08746382,-0.09397369,-0.02354276,0.00049782
 ,0.00207843,0.00041999,-0.00038173,-0.00027322,-0.00027088,0.00027146,
 -0.00020396,0.00010876,0.09480302,-0.00051430,0.00027110,-0.00018377,0
 .00002404,0.00046837,0.00004933,0.00009613,0.00000650,-0.00000945,0.00
 027724,-0.00002587,-0.00005827,-0.00016892,-0.00007603,0.00001374,-0.0
 0001743,-0.00007447,0.00003245,-0.00000407,-0.00001472,-0.00004481,-0.
 00001257,0.00002412,0.00004143,0.00003845,-0.00002651,0.00001504,0.000
 00594,-0.00006278,0.00005778,-0.00000619,-0.00001455,0.00001877,0.0000
 3151,0.00001671,0.00000032,-0.00005163,0.00006019,-0.00006450,-0.00001
 080,-0.00001870,-0.00000758,-0.00001163,0.00001837,-0.00002567,0.00000
 404,-0.00000259,-0.00000462,0.00000663,0.00000829,0.00000612,0.0000082
 3,-0.00000076,0.00000843,-0.00000128,0.00000498,-0.00000695,-0.0000005
 2,0.00000501,-0.00000494,-0.00000398,-0.00000166,0.00000025,-0.0000113
 9,-0.00000476,-0.00000136,-0.00000508,0.00000054,-0.00000409,-0.000198
 68,0.00003810,0.00001588,0.00018301,-0.00045031,0.00015015,0.00010816,
 -0.00002042,-0.00000997,-0.00001060,0.00000881,0.00000199,-0.00001465,
 -0.00000620,0.00000104,-0.00001865,-0.00000471,0.00000023,0.00360903,0
 .00120306,0.00098121,-0.00826032,-0.02231167,-0.00521269,-0.00222347,0
 .00145093,-0.00035259,-0.09135551,-0.26567397,-0.05509963,0.00043539,-
 0.00231047,-0.00018737,0.00103990,0.00075128,0.00032364,-0.00013009,0.
 00027110,0.00004853,0.09818352,0.28811156,-0.00018260,-0.00004463,0.00
 040787,0.00010432,0.00001995,0.00024314,-0.00001264,-0.00009349,-0.000
 01030,0.00007447,-0.00002611,-0.00004947,-0.00003255,0.00000443,0.0000
 0800,-0.00000680,0.00004967,-0.00000992,-0.00000555,-0.00000747,0.0000
 0996,-0.00000345,0.00000496,0.00000759,0.00003563,0.00002978,-0.000042
 27,-0.00001588,-0.00007461,-0.00002785,-0.00004254,0.00001041,0.000037
 74,0.00001894,-0.00000500,0.00001751,0.00001948,-0.00002977,-0.0000028
 3,-0.00001548,-0.00001146,0.00001272,-0.00002177,0.00002061,-0.0000157
 5,0.00001301,0.00001167,-0.00000454,0.00000082,-0.00000005,0.00000138,
 0.00002139,-0.00000765,0.00001757,-0.00000114,0.00000410,-0.00000445,-
 0.00000885,0.00000807,-0.00001192,-0.00000354,-0.00000127,-0.00000061,
 -0.00001765,-0.00001214,0.00000012,-0.00000386,-0.00000049,-0.00000178
 ,-0.00003918,0.00002618,0.00005799,0.00048343,0.00027765,-0.00088054,0
 .00001270,-0.00000643,-0.00000450,-0.00000554,0.00000256,-0.00000442,-
 0.00000477,-0.00000334,0.00000149,0.00000195,0.00000363,0.00000088,-0.
 00121122,0.00025250,0.00084279,0.00150249,0.00340184,0.00039869,0.0001
 1187,0.00063356,-0.00035071,-0.02321413,-0.05584739,-0.06283326,0.0001
 9729,0.00025970,0.00004520,-0.00003263,-0.00004185,0.00033390,0.000113
 09,0.00000917,-0.00018182,0.02682089,0.06032254,0.06248442,0.00107656,
 -0.00019589,-0.00046826,0.00031663,0.00009961,-0.00001372,-0.00003556,
 -0.00003089,-0.00000012,-0.00003149,0.00008637,0.00006993,0.00001611,-
 0.00001097,-0.00002196,-0.00003580,-0.00004401,0.00002048,0.00001156,-
 0.00000205,-0.00001614,0.00000942,-0.00001245,-0.00002167,0.00001293,-
 0.00000112,-0.00000616,-0.00001935,-0.00001608,-0.00000128,-0.00001243
 ,0.00000585,-0.00000701,-0.00000033,0.00000505,-0.00000481,0.00001090,
 0.00000826,-0.00001192,-0.00000678,0.00000231,0.00000527,0.00000231,-0
 .00000426,0.00000644,-0.00000101,-0.00000664,-0.00000097,-0.00000077,0
 .00000370,0.00000233,-0.00000189,0.00000087,-0.00000307,-0.00000049,0.
 00000059,0.00000036,0.00000453,-0.00000174,0.00000052,0.00000108,0.000
 00129,0.00000122,0.00000340,0.00000123,-0.00000026,0.00000023,0.000000
 56,0.00000061,0.00002482,0.00000934,-0.00003520,0.00038780,-0.00022175
 ,0.00067499,0.00000674,-0.00001274,0.00000860,-0.00000173,-0.00000576,
 0.00000584,0.00000212,0.00000960,0.00000136,-0.00000399,-0.00000079,-0
 .00000346,-0.00202367,-0.00171182,-0.00079131,-0.02097925,-0.00252453,
 0.01172921,-0.00060843,0.00363895,0.00058639,-0.19943335,-0.03724990,0
 .12262736,0.00067365,0.00049591,0.00001915,-0.00016109,-0.00010821,0.0
 0113261,-0.00021223,0.00009356,-0.00208353,-0.00916540,-0.00194984,0.0
 0730558,0.21981823,-0.00092155,-0.00034521,0.00017697,-0.00021959,-0.0
 0036725,-0.00011271,0.00001126,0.00005109,0.00000121,-0.00004142,-0.00
 017265,-0.00003260,0.00008138,0.00011301,0.00000062,0.00004585,0.00006
 782,0.00000569,-0.00000013,0.00001570,0.00003596,0.00000249,-0.0000103
 9,-0.00000504,-0.00003142,0.00002585,0.00000009,0.00000822,0.00003630,
 -0.00003121,0.00001112,-0.00000292,0.00000048,-0.00001742,-0.00000216,
 -0.00000514,0.00003006,-0.00002251,0.00003840,0.00000206,-0.00000138,-
 0.00000790,-0.00001274,-0.00001990,0.00000860,-0.00000459,0.00000397,0
 .00000346,-0.00000356,-0.00000805,-0.00000680,-0.00000257,0.00000012,-
 0.00000340,-0.00000050,-0.00000342,0.00000382,-0.00000024,-0.00000299,
 0.00000379,0.00000313,0.00000178,-0.00000068,0.00000665,0.00000266,0.0
 0000029,0.00000427,-0.00000047,0.00000374,0.00014968,0.00013268,0.0000
 8789,0.00004730,-0.00111744,-0.00131956,-0.00016756,0.00004596,0.00001
 705,0.00000604,-0.00000751,-0.00000491,0.00001757,0.00000219,-0.000004
 28,0.00002954,0.00000465,0.00000299,0.00129370,0.00088395,0.00003264,0
 .01926239,0.00586372,-0.01553874,0.00103776,-0.00243208,0.00008033,-0.
 03540421,-0.05811767,0.02730626,-0.00059050,0.00005007,0.00017404,0.00
 025697,0.00025579,-0.00036305,0.00018505,0.00018824,0.00162380,-0.0220
 8913,-0.00422169,0.01948934,0.03756574,0.05991470,-0.00036138,0.000169
 72,0.00053426,-0.00039314,-0.00020518,-0.00010212,0.00001236,0.0000969
 0,0.00004549,0.00015904,-0.00041587,-0.00002989,0.00004563,0.00024324,
 0.00001475,0.00002646,0.00007983,-0.00005084,0.00000329,-0.00000037,0.
 00004323,-0.00000458,-0.00000340,0.00000889,-0.00004562,0.00003342,-0.
 00002723,0.00003263,0.00005099,-0.00008839,-0.00004479,0.00004080,0.00
 002703,-0.00002087,-0.00003708,0.00003388,0.00003289,-0.00012108,0.000
 07450,0.00002276,0.00002996,0.00003524,0.00001653,0.00002331,-0.000016
 92,0.00000160,0.00002083,0.00000909,-0.00000211,-0.00001664,-0.0000105
 2,0.00000535,-0.00000129,0.00001117,0.00000305,-0.00000307,0.00000079,
 -0.00002298,0.00000452,-0.00000439,-0.00000103,-0.00000338,-0.00000404
 ,-0.00001754,-0.00000546,0.00000041,0.00000074,-0.00000297,-0.00000028
 ,-0.00000929,0.00033936,0.00006694,0.00013369,-0.00122372,-0.00134807,
 -0.00013531,-0.00005048,-0.00000563,-0.00003860,-0.00000028,0.00000994
 ,0.00001633,0.00002343,-0.00000205,0.00002162,0.00001579,0.00000081,0.
 00172897,0.00050185,0.00056491,-0.00505077,-0.00203530,0.00473013,-0.0
 0081204,0.00035260,-0.00014182,0.12161132,0.02783871,-0.14428211,-0.00
 056972,-0.00008651,-0.00023465,-0.00012932,-0.00003776,0.00041268,-0.0
 0000609,0.00020276,-0.00075324,-0.00743775,-0.00081057,0.00546883,-0.1
 3371550,-0.03152496,0.15446724,0.00064117,-0.00009468,0.00049657,0.000
 10244,-0.00004774,0.00004196,-0.00001554,-0.00003611,0.00002463,0.0000
 4128,-0.00010702,0.00000154,0.00002984,0.00008476,0.00001736,-0.000006
 33,0.00003689,-0.00001496,0.00000201,-0.00000968,0.00002178,-0.0000027
 0,-0.00000273,-0.00001718,-0.00002809,0.00006895,-0.00007195,0.0000724
 9,-0.00002421,-0.00008288,-0.00010424,0.00009236,0.00007319,-0.0000282
 2,-0.00005103,0.00004733,0.00002060,-0.00011313,0.00007876,0.00003458,
 0.00002954,0.00004142,-0.00001312,0.00002190,-0.00004172,0.00001065,0.
 00002567,0.00000199,-0.00000138,-0.00000928,-0.00000361,0.00001772,-0.
 00000383,0.00002461,0.00000307,0.00000097,-0.00000280,-0.00002388,0.00
 001189,-0.00001885,-0.00000498,-0.00000392,-0.00000292,-0.00003301,-0.
 00001767,0.00000210,-0.00000326,-0.00000233,-0.00000249,-0.00001506,0.
 00009111,-0.00001446,0.00055818,-0.00074324,-0.00004175,-0.00003732,-0
 .00002018,-0.00000954,-0.00001255,-0.00000100,0.00001331,0.00000652,0.
 00001259,0.00000032,0.00000781,0.00000185,-0.00000338,-0.00109411,-0.0
 0132419,-0.00050167,-0.01201192,0.00130476,-0.02301722,-0.00081718,0.0
 0357563,0.00002809,-0.07680466,0.00203002,-0.08343811,0.00024721,0.000
 32938,0.00037306,0.00041919,0.00019554,-0.00115107,-0.00133440,-0.0003
 8740,0.00186812,-0.00475806,0.00093037,-0.01195563,0.01035601,-0.00055
 111,0.02494418,0.08457924,-0.00068489,-0.00034364,-0.00062475,-0.00026
 174,-0.00024364,-0.00013799,0.00001590,0.00011178,0.00000947,-0.000122
 76,-0.00009064,0.00003457,0.00010715,0.00009845,-0.00001129,0.00003877
 ,0.00001236,-0.00006641,-0.00000333,0.00003109,0.00002021,0.00000318,-
 0.00000837,0.00000173,-0.00012722,-0.00014045,0.00015187,0.00004092,0.
 00032685,0.00006764,0.00010656,-0.00007430,-0.00010794,-0.00002121,0.0
 0001014,-0.00003552,-0.00005292,0.00000163,-0.00003680,0.00001342,0.00
 003404,0.00000238,0.00009571,-0.00002426,0.00005114,-0.00003484,-0.000
 02824,0.00001073,-0.00000346,-0.00000499,-0.00000689,-0.00005451,0.000
 01102,-0.00004647,0.00000180,-0.00000984,0.00001385,0.00002066,-0.0000
 2644,0.00003687,0.00000954,0.00000377,0.00000146,0.00005279,0.00003611
 ,-0.00000252,0.00000972,0.00000064,0.00000568,0.00010074,0.00001811,-0
 .00005387,-0.00100228,-0.00181504,0.00087126,-0.00011626,0.00002622,0.
 00001779,0.00000393,-0.00000895,0.00000033,0.00002108,0.00000949,-0.00
 000491,0.00001355,0.00000295,0.00000076,0.00150469,0.00096373,0.000868
 11,0.00849892,0.00038771,0.02277905,0.00083986,-0.00245596,-0.00024485
 ,0.00320043,-0.05025026,0.00945547,-0.00057336,0.00003168,-0.00049059,
 0.00001260,0.00014414,0.00044918,0.00090067,0.00056867,-0.00110722,-0.
 00934276,0.00260381,-0.02862915,0.00208265,-0.00080457,0.00651734,-0.0
 0529370,0.05089516,0.00026853,-0.00039751,0.00058356,0.00041512,0.0000
 1830,0.00038343,-0.00005159,-0.00018454,-0.00003934,-0.00004610,0.0002
 2924,-0.00003838,-0.00003114,-0.00012341,0.00000909,-0.00001515,0.0000
 5328,-0.00000402,-0.00000473,-0.00000297,0.00000227,0.00000380,-0.0000
 0332,-0.00001446,-0.00002835,-0.00003703,-0.00000177,0.00000284,0.0000
 6751,0.00001901,-0.00000518,-0.00002061,0.00000214,0.00004712,-0.00000
 865,0.00001908,-0.00003925,-0.00003515,-0.00005356,-0.00001715,0.00001
 459,0.00002384,0.00004430,0.00003499,0.00000617,-0.00000112,-0.0000046
 5,-0.00001223,-0.00000054,0.00000399,0.00000517,-0.00000044,-0.0000113
 2,-0.00000492,-0.00000090,0.00000365,0.00000642,0.00000958,-0.00000633
 ,0.00000440,-0.00000456,-0.00000074,0.00000228,0.00001056,0.00000520,-
 0.00000516,-0.00000347,0.00000220,-0.00000052,0.00000994,-0.00014997,0
 .00006037,0.00066291,0.00097263,-0.00046758,0.00006520,0.00002709,-0.0
 0000969,0.00001599,0.00000355,-0.00002260,-0.00001227,-0.00002309,0.00
 000452,-0.00000454,0.00000221,0.00000315,-0.00232069,-0.00113790,-0.00
 072517,-0.00236643,0.00141383,0.00139872,0.00066048,0.00100309,0.00020
 763,-0.08195755,0.00784489,-0.27268223,0.00071764,0.00034892,0.0002326
 7,0.00015525,0.00007379,-0.00006641,-0.00006419,-0.00007952,-0.0000204
 4,-0.00141387,-0.00000004,-0.00596084,-0.00699189,-0.00013645,-0.01945
 800,0.09229185,-0.00975973,0.29661338\\0.00000038,0.00000093,-0.000000
 14,0.00000076,-0.00000220,-0.00000170,0.00000147,-0.00000067,-0.000001
 05,0.00000171,-0.00000108,-0.00000075,0.00000140,-0.00000170,-0.000001
 23,0.00000123,0.00000151,-0.00000015,0.00000121,0.00000050,-0.00000178
 ,0.00000058,0.00000111,-0.00000125,0.00000037,0.00000101,-0.00000079,-
 0.00000058,0.00000122,0.00000033,-0.00000070,0.00000209,-0.00000027,-0
 .00000010,0.00000071,-0.00000025,-0.00000110,0.00000168,-0.00000016,-0
 .00000154,0.00000232,0.00000093,-0.00000051,0.00000127,0.00000027,0.00
 000042,0.00000008,-0.00000065,0.00000101,-0.00000028,-0.00000106,-0.00
 000101,0.00000097,0.00000049,-0.00000147,0.00000148,0.00000109,0.00000
 023,-0.00000006,-0.00000034,0.00000062,-0.00000054,-0.00000042,-0.0000
 0039,0.00000043,0.00000041,-0.00000065,0.00000032,0.00000063,0.0000010
 2,-0.00000119,0.00000010,-0.00000004,-0.00000024,0.00000034,-0.0000004
 4,-0.00000248,0.00000053,0.00000018,-0.00000273,0.00000101,0.00000107,
 -0.00000303,-0.00000002,0.00000069,-0.00000225,0.00000023,0.00000027,-
 0.00000015,-0.00000009,-0.00000072,0.00000037,0.00000029,-0.00000054,0
 .00000057,0.00000038,-0.00000069,-0.00000056,0.00000140,0.00000043,0.0
 0000037,-0.00000113,-0.00000090,0.00000060,0.00000085,-0.00000006,0.00
 000094,-0.00000024,-0.00000146,-0.00000026,0.00000167,-0.00000074,-0.0
 0000118,0.00000121,-0.00000140,0.00000014,0.00000128\\\@


 IN THE WOODS WE RETURN TO REASON AND FAITH.

                                 -- EMERSON
 Job cpu time:       0 days  1 hours 15 minutes 46.2 seconds.
 File lengths (MBytes):  RWF=    560 Int=      0 D2E=      0 Chk=     11 Scr=      1
 Normal termination of Gaussian 09 at Mon Dec 18 20:51:46 2023.
